/*--------------------------------*- C++ -*----------------------------------*\
| =========                 |                                                 |
| \\      /  F ield         | OpenFOAM: The Open Source CFD Toolbox           |
|  \\    /   O peration     | Version:  v2006                                 |
|   \\  /    A nd           | Website:  www.openfoam.com                      |
|    \\/     M anipulation  |                                                 |
\*---------------------------------------------------------------------------*/
FoamFile
{
    version     2.0;
    format      ascii;
    class       volScalarField;
    location    "2.3";
    object      p;
}
// * * * * * * * * * * * * * * * * * * * * * * * * * * * * * * * * * * * * * //

dimensions      [0 2 -2 0 0 0 0];


internalField   nonuniform List<scalar> 
26400
(
-1.2109e-08
0.00220876
0.00207118
0.00228879
0.00171432
0.00199637
0.00162623
0.00194833
0.00164887
0.00196289
0.00171038
0.00201525
0.00180262
0.00210318
0.00192871
0.00223907
0.00211277
0.00245386
0.00239428
0.00279374
0.00283063
0.0033283
0.00350833
0.0041644
0.00456688
0.0054969
0.00630457
0.00787481
0.00961766
0.0122503
3.04803e-07
0.00220882
0.00207164
0.00228883
0.00171498
0.00199638
0.00162702
0.00194829
0.00164978
0.00196277
0.00171143
0.00201502
0.00180386
0.00210277
0.00193019
0.00223836
0.0021146
0.00245264
0.00239661
0.00279152
0.00283374
0.00332381
0.00351286
0.0041537
0.00457526
0.00546358
0.00632393
0.00773112
0.00960646
0.0115628
1.2731e-06
0.00220911
0.00207254
0.00228896
0.00171624
0.00199633
0.00162851
0.00194809
0.00165154
0.00196241
0.00171349
0.00201443
0.00180627
0.00210184
0.00193303
0.00223693
0.00211797
0.00245043
0.00240061
0.00278806
0.0028384
0.00331812
0.00351817
0.00414384
0.00458175
0.00544517
0.00631991
0.00765261
0.00949025
0.0109035
3.3895e-06
0.00220996
0.00207379
0.00228942
0.00171787
0.00199643
0.00163042
0.00194797
0.00165378
0.00196205
0.00171606
0.00201376
0.00180922
0.00210073
0.00193643
0.00223514
0.0021219
0.0024476
0.00240519
0.00278354
0.0028437
0.00331085
0.00352398
0.00413118
0.00458732
0.0054156
0.00632032
0.0075294
0.00926462
0.0103505
7.14358e-06
0.00221127
0.00207536
0.00229009
0.00171981
0.00199656
0.00163263
0.00194779
0.00165634
0.00196153
0.00171896
0.00201281
0.00181248
0.00209917
0.00194012
0.00223269
0.00212612
0.00244385
0.00241007
0.00277777
0.00284917
0.00330194
0.00352959
0.00411627
0.00459026
0.00538749
0.00628827
0.0074386
0.0089163
0.00990243
1.27079e-05
0.00221267
0.00207725
0.00229065
0.00172199
0.00199644
0.00163504
0.00194727
0.0016591
0.00196058
0.00172205
0.00201131
0.00181597
0.00209692
0.0019441
0.00222939
0.00213068
0.00243905
0.00241527
0.0027708
0.00285474
0.0032919
0.00353469
0.00410319
0.00458913
0.00537505
0.00622171
0.00736228
0.008534
0.00935124
1.99219e-05
0.00221389
0.00207939
0.00229089
0.00172436
0.00199586
0.00163757
0.00194625
0.00166201
0.00195908
0.00172536
0.00200918
0.00181976
0.00209391
0.0019485
0.00222515
0.00213581
0.0024331
0.00242113
0.00276247
0.00286078
0.00328006
0.00353994
0.0040867
0.00458769
0.00533213
0.0061957
0.00719152
0.00837426
0.0089388
2.845e-05
0.00221482
0.00208177
0.00229073
0.00172692
0.00199478
0.00164026
0.0019447
0.00166514
0.00195702
0.00172898
0.00200644
0.00182398
0.00209019
0.00195347
0.00222004
0.00214161
0.00242609
0.00242763
0.00275293
0.00286721
0.00326617
0.00354444
0.00406897
0.00458493
0.00529608
0.00614168
0.00702786
0.00805243
0.00849504
3.79532e-05
0.00221546
0.00208438
0.00229021
0.00172973
0.00199322
0.00164318
0.00194265
0.00166862
0.00195443
0.00173306
0.0020031
0.00182878
0.00208576
0.00195911
0.00221408
0.00214807
0.00241816
0.00243458
0.00274268
0.00287365
0.00325392
0.00354618
0.00405403
0.00456407
0.00529382
0.00602046
0.00692812
0.00741103
0.00800522
4.81871e-05
0.00221589
0.00208728
0.0022894
0.00173291
0.00199123
0.00164645
0.00194009
0.00167256
0.00195128
0.00173772
0.00199908
0.00183428
0.00208049
0.00196554
0.0022071
0.00215534
0.00240903
0.00244214
0.00273046
0.00288055
0.00323854
0.00354835
0.00403324
0.00455484
0.00525064
0.0059491
0.00679775
0.00709244
0.0074599
5.90237e-05
0.00221614
0.00209051
0.00228835
0.00173654
0.00198881
0.00165015
0.00193702
0.00167704
0.00194752
0.00174305
0.00199434
0.00184052
0.00207437
0.00197275
0.00219916
0.00216321
0.00239898
0.00244996
0.00271781
0.00288675
0.00322278
0.00354929
0.00400936
0.00454385
0.00518049
0.0059172
0.00663231
0.00717584
0.00683886
7.04307e-05
0.00221624
0.00209409
0.0022871
0.00174072
0.00198595
0.00165434
0.00193336
0.00168215
0.00194307
0.00174911
0.00198879
0.00184757
0.00206732
0.00198072
0.00219025
0.00217159
0.00238801
0.00245783
0.00270485
0.00289154
0.00320734
0.0035471
0.00398522
0.00452349
0.00512516
0.00584943
0.00645906
0.00701709
0.00609921
8.24391e-05
0.00221612
0.00209808
0.00228563
0.00174553
0.00198261
0.00165908
0.00192906
0.00168794
0.00193787
0.00175596
0.00198239
0.00185541
0.00205936
0.00198934
0.00218051
0.00218021
0.00237625
0.00246522
0.0026919
0.00289432
0.00319244
0.00354144
0.00396394
0.00449079
0.00508109
0.00573993
0.00627716
0.00655687
0.0056839
9.51237e-05
0.00221571
0.0021025
0.00228391
0.00175106
0.00197873
0.00166444
0.00192402
0.00169447
0.00193184
0.0017636
0.00197512
0.00186398
0.00205061
0.00199838
0.00217028
0.00218872
0.00236501
0.00247124
0.00267981
0.00289403
0.00317847
0.00352673
0.00394937
0.00444713
0.00503172
0.00561866
0.00608799
0.00587176
0.00509748
0.000108593
0.00221486
0.00210738
0.0022819
0.00175741
0.00197424
0.00167049
0.00191817
0.00170179
0.00192494
0.00177209
0.00196695
0.00187326
0.00204109
0.00200775
0.00215949
0.00219703
0.00235384
0.00247586
0.0026681
0.002892
0.00316337
0.00351455
0.00391265
0.00441123
0.00494558
0.0055042
0.00591816
0.00594886
0.00469463
0.000122983
0.00221341
0.00211276
0.00227955
0.0017647
0.00196909
0.00167727
0.00191142
0.00170993
0.00191711
0.00178136
0.00195793
0.00188306
0.00203098
0.00201706
0.0021486
0.00220439
0.00234338
0.00247832
0.00265754
0.00288709
0.00314802
0.00350174
0.00387353
0.00436919
0.00484706
0.00537481
0.00570569
0.00577867
0.00395984
0.000138455
0.00221114
0.00211867
0.00227681
0.00177301
0.00196322
0.00168482
0.00190375
0.00171883
0.00190844
0.00179129
0.0019483
0.00189299
0.00202105
0.00202557
0.00213919
0.00220946
0.0023351
0.0024769
0.0026499
0.00287586
0.00313651
0.00346901
0.00385018
0.00429852
0.00476629
0.00519893
0.00543969
0.00525837
0.00371378
0.000155211
0.00220782
0.00212514
0.00227363
0.00178245
0.00195659
0.00169313
0.00189513
0.00172845
0.00189895
0.00180173
0.00193828
0.00190271
0.00201162
0.00203297
0.00213129
0.00221217
0.00232872
0.00247269
0.00264329
0.00286234
0.00312758
0.00343169
0.00381803
0.00421919
0.00467535
0.00501713
0.00513147
0.00439793
0.00320871
0.000173476
0.00220314
0.00213219
0.00226995
0.00179311
0.00194915
0.00170222
0.00188552
0.00173871
0.00188866
0.00181253
0.001928
0.00191186
0.00200197
0.00203895
0.00212419
0.00221309
0.00232206
0.00246848
0.00263273
0.00285175
0.00310026
0.00341072
0.00375889
0.00414768
0.00453428
0.00485371
0.00497439
0.00464167
0.00286352
0.000193438
0.00219684
0.0021398
0.00226579
0.001805
0.00194102
0.0017119
0.00187522
0.00174923
0.00187828
0.00182289
0.00192026
0.00192012
0.00199517
0.0020428
0.00211906
0.0022117
0.00231633
0.00246221
0.00262196
0.00284162
0.00307442
0.00338548
0.00369001
0.0040641
0.00437757
0.00466708
0.00473667
0.00450946
0.00203273
0.00021556
0.00218847
0.00214803
0.00226101
0.00181832
0.001932
0.0017223
0.00186391
0.00176013
0.00186708
0.00183282
0.00190784
0.00192802
0.00198809
0.0020452
0.00211469
0.00220802
0.00231162
0.0024512
0.00261201
0.00281931
0.00305719
0.00333746
0.0036379
0.00395656
0.00423587
0.00441093
0.0043729
0.00393899
0.00211969
0.000239835
0.00217778
0.00215672
0.00225583
0.00183286
0.00192264
0.0017328
0.0018527
0.00177035
0.00185821
0.00184092
0.00190398
0.00193082
0.00198733
0.0020412
0.00211771
0.00219739
0.00231658
0.00243143
0.00261552
0.00277977
0.00304377
0.00326203
0.00358381
0.00383186
0.00409957
0.00414092
0.00391917
0.00286815
0.00176537
0.000266969
0.00216419
0.00216592
0.00225006
0.00184882
0.00191274
0.00174352
0.0018409
0.00178014
0.00184875
0.00184931
0.00189695
0.00193494
0.00198176
0.00204364
0.00210914
0.00220046
0.00229963
0.00243591
0.00258194
0.00277937
0.0029822
0.00323932
0.00347757
0.00372136
0.00386916
0.00393274
0.00381026
0.00346753
0.00149906
0.000297184
0.00214736
0.00217548
0.00224379
0.0018661
0.0019025
0.00175416
0.0018285
0.00178848
0.00183865
0.00185571
0.00189126
0.00193763
0.00197682
0.002044
0.00210209
0.00219741
0.00228688
0.00242731
0.00256554
0.00275915
0.00294649
0.00318654
0.00338922
0.00359039
0.00367765
0.0036658
0.00346905
0.00310686
0.00123225
0.000330561
0.00212706
0.00218504
0.00223749
0.00188417
0.0018935
0.00176381
0.00182033
0.00179308
0.00183793
0.0018546
0.00189625
0.00193067
0.00198571
0.00203073
0.00211408
0.00217521
0.00230085
0.00238201
0.00257126
0.00269263
0.00293528
0.00307312
0.00332292
0.00343084
0.00354282
0.00334207
0.00286828
0.00164217
0.000946318
0.000367795
0.00210276
0.00219454
0.00223092
0.00190309
0.00188464
0.00177331
0.00181034
0.00179782
0.00183194
0.00185747
0.00189066
0.00193528
0.00197547
0.00204196
0.00209458
0.00219222
0.00226935
0.00240437
0.00251339
0.00268943
0.00284819
0.00304343
0.00318383
0.00328859
0.00327755
0.00316846
0.00293477
0.00254881
0.000688808
0.000409585
0.00207398
0.00220382
0.00222406
0.00192262
0.00187479
0.00178168
0.0018021
0.00180032
0.00182956
0.00185766
0.00188933
0.00193341
0.00196801
0.00203836
0.00208298
0.002187
0.00224521
0.00239759
0.00247941
0.00268297
0.00278077
0.00299187
0.00305196
0.00313668
0.00301649
0.00284863
0.00256348
0.00229708
0.000503579
0.000454886
0.00204188
0.00221173
0.00221926
0.00194155
0.00187187
0.00178453
0.0018005
0.00179371
0.0018383
0.00184539
0.00190709
0.00191421
0.002
0.00200308
0.00211844
0.00213628
0.00228321
0.00232701
0.00250151
0.00258049
0.00276545
0.00286076
0.00298449
0.00295804
0.00281869
0.00236206
0.00163234
0.000643747
0.00101311
0.000504987
0.00200473
0.00221899
0.00221353
0.00196374
0.00186686
0.00179146
0.00179287
0.00179622
0.00183275
0.00184936
0.00189952
0.00191734
0.00198519
0.00200346
0.00210239
0.00213276
0.00226136
0.0023123
0.00246919
0.00254633
0.00270988
0.00277892
0.002876
0.00282301
0.00265609
0.00213031
0.00129733
0.000223557
0.00066414
0.000561308
0.0019602
0.00222374
0.00220555
0.00198266
0.00186492
0.00179638
0.00178601
0.00179936
0.00182534
0.00185774
0.00188803
0.00193091
0.00196738
0.00202392
0.00207335
0.00214916
0.00221958
0.00231607
0.00240995
0.00251955
0.0026173
0.00270129
0.00272237
0.00269648
0.00253438
0.00226836
0.00183744
0.00124252
-0.00089653
0.000620717
0.00192475
0.00222111
0.00221318
0.00199785
0.00186773
0.0017975
0.00178151
0.00179858
0.00182091
0.00186009
0.0018819
0.00193427
0.00195756
0.00202736
0.00205532
0.0021463
0.00219068
0.00229776
0.00236093
0.00246914
0.00253291
0.00260074
0.00260286
0.00256047
0.00244165
0.00224236
0.00174712
0.000648653
-0.00309985
0.000688057
0.00187091
0.00222035
0.00218604
0.00202623
0.00187309
0.00180393
0.00177836
0.00179811
0.00181914
0.00185582
0.001883
0.001925
0.00196121
0.00201193
0.00206349
0.00212402
0.00218917
0.00225898
0.00233142
0.00240298
0.0024583
0.00250623
0.00249379
0.00241071
0.00219935
0.0018222
0.00126995
0.000470541
-0.00213823
0.000753563
0.00183956
0.0022007
0.0022138
0.00202121
0.00189152
0.00179272
0.00179315
0.00177772
0.00183707
0.00183062
0.00190641
0.0018962
0.00198569
0.00197388
0.00207408
0.00208014
0.00217692
0.00220113
0.00228587
0.00231848
0.00237906
0.00240256
0.00239693
0.002254
0.00201701
0.00130487
0.000106325
-0.00154767
-0.00228755
0.000832679
0.00178936
0.00218719
0.00217399
0.00206208
0.00189086
0.00181514
0.00177759
0.00179495
0.00181625
0.00185054
0.00188258
0.00192006
0.00195981
0.00200061
0.00204343
0.00208738
0.00212963
0.00217524
0.00221388
0.00225282
0.00227429
0.00227847
0.00222742
0.00210557
0.00187781
0.00153422
0.00104881
0.000105577
-0.00313892
0.000903789
0.00176239
0.002155
0.00219227
0.00206082
0.00190867
0.00181768
0.00178022
0.00178885
0.00181146
0.00184428
0.00187591
0.00191214
0.00194774
0.0019854
0.00202605
0.00206665
0.0021078
0.0021393
0.00215774
0.00217544
0.00216057
0.00213475
0.00205929
0.00196085
0.00179045
0.00151615
0.000797656
-0.0008936
-0.00527352
0.000983178
0.00173132
0.00211809
0.00217578
0.00207721
0.00192139
0.00182968
0.00178365
0.00179319
0.00180833
0.0018422
0.00186995
0.00190639
0.00194367
0.0019798
0.00201552
0.00204917
0.00206936
0.00209057
0.00209178
0.00208706
0.00204868
0.00199074
0.00188297
0.00174494
0.00153922
0.00122795
0.000486391
-0.0012465
-0.00567763
0.00107122
0.00171181
0.00207732
0.00214632
0.00208928
0.00193012
0.00184253
0.00178801
0.00179454
0.00180304
0.00183521
0.00186074
0.00189645
0.00193083
0.00196443
0.00199949
0.00202469
0.00203764
0.00204665
0.00202518
0.00199732
0.00193426
0.00185288
0.00169795
0.00145762
0.00108686
0.000629118
6.30395e-05
-0.000851825
-0.00410568
0.00111184
0.0017311
0.00203238
0.00216624
0.0020546
0.00197996
0.00183637
0.00182541
0.00177454
0.00181712
0.00181014
0.00186153
0.00187324
0.00191872
0.00193956
0.0019728
0.00199218
0.00200048
0.00199853
0.00196633
0.00189575
0.00181646
0.00168752
0.00154371
0.00124195
0.000703719
-0.000382539
-0.00188119
-0.00377241
-0.00350084
0.00123756
0.00168434
0.00199936
0.00210294
0.00208405
0.00196457
0.00187671
0.00181936
0.00179551
0.0017981
0.00181679
0.00184312
0.00187288
0.00189945
0.00192804
0.00194254
0.00196075
0.00195257
0.00193867
0.00188607
0.0018092
0.00167522
0.00149133
0.00127083
0.00104182
0.000761752
0.000427226
2.5383e-05
-0.000500469
-0.00339773
0.00125621
0.00173073
0.00195921
0.00212072
0.00204888
0.00200766
0.00186478
0.00184383
0.00178112
0.00180203
0.00179944
0.0018315
0.00185142
0.0018778
0.00190322
0.00191768
0.00192678
0.00191639
0.00187124
0.00182387
0.0017293
0.00162074
0.00145651
0.0012581
0.000860712
0.000119066
-0.001142
-0.00277771
-0.00470124
-0.00409828
0.00137938
0.00168536
0.00193756
0.00205807
0.00206919
0.00199163
0.00191434
0.00184884
0.00180529
0.00178733
0.0017974
0.00181218
0.00183537
0.00185388
0.00187074
0.00187537
0.00187537
0.00185394
0.00181767
0.00175539
0.00166437
0.00153414
0.00135152
0.00109537
0.0007792
0.00043881
0.000104471
-0.000343276
-0.00157588
-0.00562013
0.00144831
0.00168781
0.00191923
0.00203472
0.00206206
0.00199367
0.00192572
0.00184733
0.00180928
0.00178444
0.00178347
0.00179394
0.00181236
0.00183648
0.00184628
0.00183956
0.00183725
0.00180461
0.00177017
0.00169066
0.00159335
0.00143963
0.00125807
0.00102534
0.000759263
0.000380343
-0.000219987
-0.00136585
-0.00360602
-0.00863372
0.0014748
0.00173116
0.00190451
0.00200681
0.00203632
0.00199977
0.00193553
0.00186936
0.00182895
0.00180182
0.00177912
0.00176903
0.00177947
0.00178668
0.00179805
0.0017986
0.00179256
0.00176275
0.00171517
0.00163054
0.00151589
0.00135017
0.0011443
0.000885099
0.000570281
0.000131651
-0.000560043
-0.00178625
-0.00412429
-0.00914974
0.00161587
0.00169107
0.00188894
0.00197752
0.00202082
0.00197972
0.00193335
0.00187133
0.00182557
0.00179322
0.00176998
0.00176631
0.00176153
0.0017601
0.00177131
0.00175869
0.00175366
0.00171098
0.00165973
0.00156466
0.00144723
0.00126374
0.00101606
0.000653556
0.000199599
-0.000334629
-0.000909915
-0.00169069
-0.00323467
-0.00786805
0.00155537
0.00183123
0.00186471
0.00199139
0.0019634
0.00200684
0.00190317
0.00189967
0.00181091
0.00180809
0.00174771
0.00173807
0.00171903
0.00172152
0.00172935
0.00172563
0.00171843
0.00167897
0.00159597
0.00151306
0.00136665
0.00120299
0.000919683
0.000530802
-0.000196597
-0.0013087
-0.0028456
-0.00470387
-0.0067772
-0.00585133
0.00172449
0.00177356
0.0018721
0.00193063
0.00195761
0.00196131
0.00193576
0.00188648
0.00184766
0.00180804
0.00175184
0.00170265
0.0016793
0.00166933
0.00167399
0.0016668
0.00165423
0.00161089
0.00154436
0.00144427
0.00130719
0.0011132
0.000845004
0.000488677
6.47655e-05
-0.000412405
-0.000996326
-0.00194575
-0.00401472
-0.00925215
0.00173568
0.00179306
0.0018922
0.00193647
0.00195674
0.00194163
0.00191705
0.0018725
0.0018242
0.00178023
0.0017337
0.00170546
0.00166868
0.00163844
0.00163125
0.00160819
0.00159937
0.00155132
0.00149231
0.00138245
0.00125037
0.00105823
0.000827542
0.00051024
9.37111e-05
-0.000578319
-0.0016432
-0.00344722
-0.00651485
-0.0123782
0.00176407
0.00187231
0.00190789
0.00192342
0.00192781
0.00191351
0.00189873
0.00186616
0.00183229
0.00177459
0.00171121
0.00165907
0.00161389
0.00159668
0.00157899
0.00156947
0.00154215
0.00150183
0.00142802
0.0013276
0.00118711
0.00100911
0.000770074
0.000448637
-2.24137e-05
-0.000718693
-0.00179667
-0.0035446
-0.00665924
-0.0126801
0.00185503
0.00188605
0.00190721
0.001905
0.00189447
0.00188598
0.00187237
0.00184751
0.00181871
0.0017752
0.00170325
0.00162742
0.00157984
0.00155388
0.00154129
0.0015219
0.00149134
0.00144075
0.00136581
0.0012608
0.00112104
0.000937414
0.000691845
0.000351348
-0.000136129
-0.00085799
-0.00198298
-0.00385954
-0.00721171
-0.0135523
0.00187112
0.00192161
0.00193936
0.00192571
0.00189657
0.00186792
0.00183852
0.00180818
0.0017687
0.001723
0.0016675
0.00161365
0.00156678
0.00153269
0.00150436
0.00147521
0.00143529
0.00137858
0.0012984
0.00118969
0.00104545
0.000854833
0.000597432
0.000241095
-0.000268942
-0.001032
-0.00224039
-0.00425251
-0.00776816
-0.0142576
0.00192886
0.00196665
0.00195989
0.00192506
0.00187905
0.00183482
0.00179643
0.00176312
0.00172848
0.00169076
0.00164578
0.00159679
0.00154806
0.00150492
0.00146503
0.00142493
0.001376
0.00131228
0.00122606
0.00111172
0.000960417
0.000760429
0.000489988
0.000114657
-0.000427234
-0.00124355
-0.00252844
-0.00463356
-0.00824334
-0.0147818
0.00197086
0.00199873
0.00197801
0.00192737
0.00186599
0.00180991
0.00176439
0.00172896
0.00169484
0.00165772
0.00161492
0.00156788
0.00151867
0.0014707
0.00142307
0.00137314
0.00131508
0.0012431
0.00114954
0.00102756
0.000867491
0.000655963
0.000369786
-2.89478e-05
-0.000605134
-0.00146804
-0.00280898
-0.00497472
-0.00862906
-0.0151849
0.00201267
0.00202878
0.00200051
0.00193507
0.00185671
0.0017869
0.00173203
0.00169054
0.00165415
0.00161837
0.00157836
0.00153376
0.00148468
0.00143326
0.0013789
0.00132015
0.00125262
0.00117139
0.00106909
0.000937989
0.000767363
0.000542409
0.000238409
-0.000184073
-0.000790522
-0.00168938
-0.00306957
-0.00526981
-0.00895172
-0.0155283
0.00205615
0.00206416
0.00201646
0.00193622
0.00184593
0.00176416
0.00169956
0.00165139
0.00161303
0.00157779
0.00153972
0.00149642
0.00144705
0.00139229
0.0013319
0.00126479
0.00118786
0.00109662
0.000984442
0.000842716
0.000660081
0.000420465
9.86685e-05
-0.000345326
-0.000976352
-0.00190184
-0.00330668
-0.00552569
-0.00921872
-0.0158018
0.0020961
0.00209178
0.00203322
0.00193969
0.00183622
0.00174281
0.00166873
0.00161425
0.00157269
0.00153633
0.00149863
0.00145572
0.0014054
0.0013474
0.00128131
0.00120626
0.00111994
0.00101844
0.000895382
0.000742004
0.00054652
0.00029238
-4.58637e-05
-0.000508068
-0.00115845
-0.0021031
-0.00352344
-0.00575441
-0.00945721
-0.0160517
0.00213364
0.00212035
0.00204943
0.00194307
0.001827
0.00172185
0.00163806
0.00157638
0.00153082
0.00149282
0.0014548
0.00141138
0.00135962
0.0012983
0.00122683
0.00114425
0.00104875
0.000936711
0.000802246
0.000636747
0.000428489
0.000160648
-0.000192118
-0.00066952
-0.00133527
-0.00229336
-0.00372491
-0.00596482
-0.00967423
-0.0162767
0.0021687
0.00214832
0.00206523
0.00194652
0.00181835
0.00170093
0.00160672
0.0015374
0.00148753
0.00144733
0.0014084
0.00136385
0.00131019
0.0012453
0.00116852
0.00107861
0.000974135
0.000851643
0.00070588
0.000528469
0.000308012
2.75764e-05
-0.000337926
-0.000828048
-0.00150527
-0.00247343
-0.00391393
-0.00616189
-0.00987717
-0.0164809
0.00219742
0.00217144
0.00208309
0.00195401
0.00181148
0.00168026
0.00157477
0.00149792
0.00144311
0.00140038
0.00135958
0.00131346
0.00125725
0.00118869
0.00110639
0.00100943
0.000896128
0.000763677
0.000606974
0.000418353
0.00018642
-0.000105312
-0.000481926
-0.000982324
-0.00166835
-0.00264394
-0.00409125
-0.00634584
-0.0100694
-0.0166839
0.00222476
0.00219271
0.00209863
0.00195985
0.00180424
0.00166002
0.0015437
0.00145881
0.00139838
0.00135203
0.00130863
0.00126022
0.00120106
0.00112851
0.0010407
0.000936804
0.000815095
0.000673185
0.000506263
0.000307184
6.47915e-05
-0.000237076
-0.000623302
-0.0011318
-0.0018246
-0.00280566
-0.00425737
-0.00651565
-0.010244
-0.0168671
0.0022537
0.00221679
0.00210946
0.00195871
0.00179371
0.00163997
0.00151411
0.00142048
0.00135358
0.00130243
0.00125578
0.00120431
0.00114193
0.00106504
0.000971855
0.000861118
0.000731546
0.000580709
0.000404427
0.0001957
-5.6079e-05
-0.00036698
-0.000760981
-0.00127603
-0.00197403
-0.00295911
-0.00441316
-0.00667133
-0.0103945
-0.0170078
0.00227776
0.00223508
0.00212047
0.00196009
0.00178442
0.00162015
0.00148435
0.00138202
0.00130807
0.00125169
0.00120108
0.00114612
0.00108004
0.000998718
0.000900114
0.000782893
0.000645879
0.000486857
0.000301978
8.45887e-05
-0.000175607
-0.000494018
-0.000894354
-0.00141459
-0.00211656
-0.00310424
-0.00455927
-0.00681701
-0.0105402
-0.0171587
0.00229751
0.00225048
0.00213135
0.00196296
0.00177604
0.00160003
0.00145373
0.00134273
0.00126175
0.00119989
0.00114477
0.0010859
0.00101574
0.000929891
0.000825916
0.000702566
0.000558604
0.000392136
0.000199483
-2.55964e-05
-0.000292926
-0.000617464
-0.00102294
-0.00154722
-0.00225219
-0.00324173
-0.00469773
-0.00695594
-0.01068
-0.0172996
0.00231699
0.0022668
0.0021393
0.00196155
0.00176512
0.00157909
0.00142294
0.00130316
0.001215
0.00114728
0.00108734
0.0010241
0.000949632
0.000859082
0.0007499
0.000620692
0.000470359
0.00029711
9.75998e-05
-0.00013413
-0.00040731
-0.000736837
-0.00114635
-0.00167377
-0.00238095
-0.00337197
-0.00482891
-0.00708777
-0.0108119
-0.0174303
0.002333
0.00227902
0.00214586
0.00196013
0.00175411
0.00155797
0.00139204
0.0012635
0.00116795
0.00109414
0.00102902
0.000961123
0.000882096
0.000786813
0.000672534
0.000537838
0.000381662
0.000202365
-3.18457e-06
-0.0002404
-0.000518369
-0.000851884
-0.00126455
-0.00179425
-0.0025029
-0.0034947
-0.00495202
-0.00721117
-0.0109357
-0.0175538
0.00234577
0.00228847
0.00215094
0.00195832
0.00174301
0.00153661
0.00136087
0.00122375
0.00112078
0.00104069
0.000970077
0.000897274
0.000813526
0.000713529
0.000594322
0.000454525
0.000293057
0.000108447
-0.000102225
-0.000343992
-0.000625872
-0.000962537
-0.00137757
-0.00190877
-0.00261809
-0.00360973
-0.00506626
-0.00732447
-0.0110493
-0.017672
0.00235777
0.00229753
0.0021534
0.00195281
0.00172909
0.00151396
0.00132952
0.00118412
0.00107373
0.00098715
0.00091092
0.000833029
0.000744529
0.000639844
0.000515942
0.000371384
0.000205175
1.58965e-05
-0.000198984
-0.000444477
-0.000729477
-0.00106859
-0.00148529
-0.00201733
-0.00272658
-0.00371724
-0.00517189
-0.00742745
-0.0111491
-0.0177695
0.00236749
0.00230363
0.00215377
0.00194592
0.00171418
0.00149077
0.00129806
0.00114465
0.00102692
0.000933766
0.000851794
0.000768781
0.000675549
0.000566287
0.000437926
0.000288966
0.000118492
-7.4684e-05
-0.000293025
-0.000541526
-0.00082897
-0.0011699
-0.00158768
-0.00212002
-0.00282871
-0.00381789
-0.00527013
-0.00752261
-0.0112415
-0.0178626
0.00237448
0.00230769
0.00215266
0.00193812
0.00169873
0.00146719
0.00126631
0.00110508
0.000980195
0.000880623
0.000792977
0.000704854
0.000606948
0.000493284
0.000360732
0.000207773
3.35984e-05
-0.000162872
-0.000384077
-0.000634986
-0.000924306
-0.00126651
-0.00168491
-0.00221718
-0.0029251
-0.00391291
-0.00536334
-0.00761375
-0.0113304
-0.0179504
0.00237847
0.00230937
0.00215027
0.00192983
0.00168306
0.00144337
0.00123438
0.00106557
0.000933767
0.000827998
0.000734775
0.000641654
0.000539199
0.000421365
0.000284927
0.000128374
-4.89753e-05
-0.000248208
-0.000471778
-0.000724596
-0.00101534
-0.00135841
-0.00177711
-0.00230912
-0.00301628
-0.00400299
-0.00545226
-0.00770212
-0.0114202
-0.0180442
0.00238011
0.00230896
0.00214618
0.00192031
0.00166661
0.00141922
0.00120248
0.00102642
0.000887965
0.000776209
0.000677594
0.000579655
0.000472857
0.000351108
0.000211098
5.14358e-05
-0.000128627
-0.000330181
-0.000555695
-0.000810027
-0.00110184
-0.0014455
-0.00186432
-0.00239603
-0.00310258
-0.00408849
-0.00553705
-0.0077865
-0.0115046
-0.018129
0.00238089
0.00230748
0.00214032
0.00190877
0.00164871
0.00139453
0.00117082
0.000987928
0.000843124
0.000725609
0.000621841
0.000519303
0.000408421
0.000283062
0.000139924
-2.24498e-05
-0.000204843
-0.000408375
-0.00063549
-0.000891041
-0.00118366
-0.00152772
-0.00194656
-0.00247794
-0.00318392
-0.00416912
-0.00561689
-0.00786555
-0.0115828
-0.0182064
0.00237964
0.00230406
0.00213305
0.00189639
0.0016304
0.00136984
0.00113962
0.000950349
0.00079958
0.00067662
0.000567989
0.000461142
0.000346495
0.000217873
7.19345e-05
-9.28478e-05
-0.000277285
-0.00048251
-0.000710958
-0.000967478
-0.00126069
-0.00160499
-0.00202372
-0.00255469
-0.00325999
-0.00424428
-0.00569092
-0.00793826
-0.0116542
-0.0182774
0.00237679
0.00229931
0.00212489
0.00188358
0.00161204
0.00134546
0.00110914
0.000913947
0.000757634
0.00062962
0.000516474
0.000405663
0.000287572
0.000155986
7.51062e-06
-0.000159425
-0.000345658
-0.000552328
-0.000781873
-0.00103914
-0.00133276
-0.00167711
-0.00209558
-0.00262598
-0.00333042
-0.00431359
-0.00575892
-0.00800491
-0.0117198
-0.018343
0.00237273
0.00229352
0.00211598
0.00187039
0.00159378
0.00132166
0.00107971
0.000879076
0.000717666
0.000585021
0.000467754
0.000353337
0.000232124
9.78579e-05
-5.28993e-05
-0.000221746
-0.000409541
-0.00061743
-0.00084786
-0.00110568
-0.00139952
-0.00174378
-0.00216184
-0.00269154
-0.00339502
-0.00437703
-0.00582113
-0.00806598
-0.0117802
-0.0184036
0.00236784
0.00228703
0.00210662
0.00185714
0.00157591
0.00129879
0.00105174
0.000846163
0.000680142
0.000543318
0.000422343
0.000304687
0.000180679
4.4021e-05
-0.000108758
-0.000279278
-0.000468414
-0.00067732
-0.000908452
-0.00116667
-0.00146061
-0.00180468
-0.00222227
-0.00275126
-0.00345382
-0.00443476
-0.00587775
-0.00812163
-0.0118352
-0.018459
0.00236245
0.0022802
0.0020972
0.00184423
0.00155887
0.00127727
0.00102566
0.000815691
0.000645573
0.000505044
0.000380789
0.000260267
0.000133789
-4.9759e-06
-0.000159525
-0.000331496
-0.000521775
-0.000731527
-0.00096322
-0.00122172
-0.00151569
-0.00185956
-0.00227673
-0.00280511
-0.00350691
-0.00448697
-0.00592901
-0.00817198
-0.011885
-0.0185089
0.00235706
0.00227357
0.00208824
0.00183215
0.00154314
0.00125759
0.001002
0.000788202
0.000614564
0.00047086
0.00034378
0.000220786
9.21578e-05
-4.84457e-05
-0.000204537
-0.000377768
-0.000569029
-0.0007795
-0.00101166
-0.00127039
-0.00156437
-0.00190806
-0.0023249
-0.00285283
-0.00355408
-0.00453356
-0.00597499
-0.00821737
-0.0119298
-0.0185538
0.00235183
0.00226738
0.00208024
0.00182157
0.00152941
0.00124042
0.000981375
0.000764345
0.0005878
0.000441534
0.000312184
0.000187182
5.67846e-05
-8.53481e-05
-0.000242735
-0.000417019
-0.000609099
-0.000820155
-0.00105268
-0.00131158
-0.00160556
-0.0019491
-0.00236569
-0.0028933
-0.00359421
-0.00457338
-0.00601461
-0.00825699
-0.0119698
-0.0185945
0.00234756
0.00226202
0.00207337
0.00181267
0.00151797
0.0012262
0.000964441
0.000744991
0.000566356
0.000418271
0.000287288
0.000160797
2.90534e-05
-0.000114263
-0.000272652
-0.000447739
-0.000640425
-0.000851891
-0.00108465
-0.00134361
-0.00163752
-0.00198087
-0.0023972
-0.00292452
-0.00362517
-0.00460415
-0.00604533
-0.00828786
-0.012001
-0.0186261
0.00234612
0.00225973
0.0020683
0.001804
0.00150592
0.00121155
0.000947931
0.000727022
0.000547021
0.000397466
0.000264897
0.000136752
3.39183e-06
-0.00014143
-0.000301151
-0.000477375
-0.000670988
-0.000883186
-0.00111648
-0.0013758
-0.00166986
-0.0020132
-0.0024293
-0.00295619
-0.0036562
-0.00463436
-0.00607467
-0.00831658
-0.0120301
-0.0186585
0.0142858
0.0139882
0.0125004
0.0103299
0.0075356
0.00424689
0.000628405
-0.00295801
-0.00579401
-0.00723571
-0.00730041
-0.0065414
-0.0055324
-0.00459978
-0.00387148
-0.00336642
-0.00304995
-0.00287008
-0.00277805
-0.00273608
-0.00271801
-0.00270744
-0.00269523
-0.00267734
-0.00265298
-0.00262319
-0.00258986
-0.00255502
-0.00252039
-0.00248728
-0.00245646
-0.00242828
-0.0024028
-0.00237988
-0.00235931
-0.00234089
-0.00232445
-0.00230985
-0.002297
-0.00228581
-0.00227619
-0.00226804
-0.00226125
-0.00225571
-0.0022513
-0.00224793
-0.00224551
-0.00224396
-0.00224323
-0.00224327
-0.00224405
-0.00224555
-0.00224773
-0.00225059
-0.00225409
-0.00225822
-0.00226295
-0.00226826
-0.00227413
-0.00228053
-0.00228745
-0.00229486
-0.00230274
-0.00231108
-0.00231985
-0.00232904
-0.00233863
-0.00234862
-0.00235897
-0.0023697
-0.00238077
-0.00239219
-0.00240392
-0.00241599
-0.00242835
-0.00244103
-0.00245398
-0.00246723
-0.00248075
-0.00249453
-0.00250857
-0.00252286
-0.00253739
-0.00255217
-0.00256717
-0.00258241
-0.00259786
-0.00261353
-0.00262941
-0.0026455
-0.00266178
-0.00267827
-0.00269494
-0.00271181
-0.00272886
-0.0027461
-0.00276351
-0.00278109
-0.00279884
-0.00281676
-0.00283484
-0.00285309
-0.00287149
-0.00289006
-0.00290877
-0.00292763
-0.00294664
-0.00296581
-0.00298511
-0.00300456
-0.00302415
-0.00304387
-0.00306372
-0.00308371
-0.00310381
-0.00312406
-0.00314442
-0.00316491
-0.00318552
-0.00320625
-0.0032271
-0.00324807
-0.00326915
-0.00329034
-0.00331164
-0.00333306
-0.00335458
-0.00337621
-0.00339793
-0.00341977
-0.0034417
-0.00346374
-0.00348587
-0.00350811
-0.00353044
-0.00355287
-0.00357538
-0.003598
-0.0036207
-0.00364351
-0.00366639
-0.00368937
-0.00371244
-0.0037356
-0.00375884
-0.00378217
-0.00380558
-0.00382907
-0.00385264
-0.00387629
-0.00390001
-0.00392382
-0.0039477
-0.00397166
-0.00399569
-0.0040198
-0.00404397
-0.00406823
-0.00409255
-0.00411696
-0.00414142
-0.00416597
-0.00419057
-0.00421525
-0.00423999
-0.00426481
-0.00428969
-0.00431464
-0.00433963
-0.00436472
-0.00438984
-0.00441505
-0.0044403
-0.00446563
-0.00449101
-0.00451646
-0.00454196
-0.00456753
-0.00459315
-0.00461884
-0.00464457
-0.00467038
-0.00469623
-0.00472216
-0.00474813
-0.00477418
-0.00480025
-0.00482641
-0.0048526