/*--------------------------------*- C++ -*----------------------------------*\
| =========                 |                                                 |
| \\      /  F ield         | OpenFOAM: The Open Source CFD Toolbox           |
|  \\    /   O peration     | Version:  v2006                                 |
|   \\  /    A nd           | Website:  www.openfoam.com                      |
|    \\/     M anipulation  |                                                 |
\*---------------------------------------------------------------------------*/
FoamFile
{
    version     2.0;
    format      ascii;
    class       surfaceScalarField;
    location    "2.3";
    object      phi;
}
// * * * * * * * * * * * * * * * * * * * * * * * * * * * * * * * * * * * * * //

dimensions      [0 3 -1 0 0 0 0];
oriented        oriented;


internalField   nonuniform List<scalar> 
52390
(
1.17004e-06
-3.18938e-07
1.17008e-06
2.80247e-07
1.17314e-06
-2.57568e-07
1.17326e-06
2.17976e-07
1.17678e-06
-2.0715e-07
1.17691e-06
1.68094e-07
1.18032e-06
-1.67604e-07
1.18021e-06
1.29204e-07
1.18342e-06
-1.35723e-07
1.18309e-06
9.8653e-08
1.18611e-06
-1.09887e-07
1.18556e-06
7.473e-08
1.18841e-06
-8.91074e-08
1.18763e-06
5.61815e-08
1.19034e-06
-7.23942e-08
1.18931e-06
4.18797e-08
1.19191e-06
-5.88613e-08
1.19057e-06
3.08732e-08
1.19314e-06
-4.78103e-08
1.19138e-06
2.2434e-08
1.19398e-06
-3.86201e-08
1.19166e-06
1.6031e-08
1.19438e-06
-3.05979e-08
1.19129e-06
1.12349e-08
1.19421e-06
-2.26316e-08
1.19028e-06
7.39762e-09
1.19284e-06
-1.15488e-08
1.1866e-06
4.40885e-09
1.18214e-06
1.86472e-08
2.3657e-08
1.15365e-06
1.22709e-06
-3.21771e-07
1.22767e-06
2.79671e-07
1.23154e-06
-2.61443e-07
1.23221e-06
2.17307e-07
1.23607e-06
-2.11007e-07
1.23654e-06
1.67628e-07
1.23993e-06
-1.70992e-07
1.24021e-06
1.28922e-07
1.2431e-06
-1.38619e-07
1.24332e-06
9.84405e-08
1.2457e-06
-1.12276e-07
1.24594e-06
7.44949e-08
1.24779e-06
-9.09542e-08
1.24814e-06
5.58243e-08
1.24938e-06
-7.3632e-08
1.24998e-06
4.12824e-08
1.25049e-06
-5.93756e-08
1.25148e-06
2.98865e-08
1.25109e-06
-4.74248e-08
1.25266e-06
2.08684e-08
1.25112e-06
-3.70777e-08
1.25349e-06
1.36594e-08
1.25045e-06
-2.75628e-08
1.25385e-06
7.84017e-09
1.24898e-06
-1.77593e-08
1.2534e-06
2.97051e-09
1.24636e-06
-4.50623e-09
1.24967e-06
1.0969e-09
1.23779e-06
3.05285e-08
3.89492e-08
1.2225e-06
1.28548e-06
-3.2447e-07
1.28904e-06
2.76114e-07
1.29181e-06
-2.64211e-07
1.295e-06
2.14113e-07
1.29717e-06
-2.13173e-07
1.30002e-06
1.64779e-07
1.30128e-06
-1.72259e-07
1.30395e-06
1.26257e-07
1.30437e-06
-1.39037e-07
1.30705e-06
9.57588e-08
1.30665e-06
-1.11874e-07
1.30948e-06
7.16619e-08
1.30826e-06
-8.9736e-08
1.31135e-06
5.2736e-08
1.30931e-06
-7.15861e-08
1.31272e-06
3.78675e-08
1.30984e-06
-5.64931e-08
1.3136e-06
2.61234e-08
1.3099e-06
-4.37245e-08
1.31396e-06
1.68122e-08
1.30951e-06
-3.26346e-08
1.31369e-06
9.48406e-09
1.30869e-06
-2.25635e-08
1.3126e-06
3.929e-09
1.30747e-06
-1.26325e-08
1.3103e-06
1.44451e-10
1.30594e-06
-1.46571e-10
1.30352e-06
3.51882e-09
1.30063e-06
3.34193e-08
6.14483e-08
1.27813e-06
1.34585e-06
-3.2622e-07
1.35199e-06
2.6998e-07
1.35318e-06
-2.654e-07
1.35868e-06
2.08608e-07
1.35889e-06
-2.13387e-07
1.36386e-06
1.59816e-07
1.36297e-06
-1.71373e-07
1.36756e-06
1.21667e-07
1.36576e-06
-1.37241e-07
1.37016e-06
9.13596e-08
1.36763e-06
-1.09342e-07
1.37192e-06
6.73727e-08
1.3688e-06
-8.66166e-08
1.373e-06
4.85375e-08
1.36943e-06
-6.80207e-08
1.37351e-06
3.37926e-08
1.36964e-06
-5.26249e-08
1.37351e-06
2.22562e-08
1.36949e-06
-3.97052e-08
1.37302e-06
1.32833e-08
1.369e-06
-2.86172e-08
1.37201e-06
6.47627e-09
1.36817e-06
-1.8728e-08
1.37034e-06
1.76212e-09
1.36708e-06
-9.3682e-09
1.36751e-06
-2.87924e-10
1.36577e-06
1.59185e-09
1.36055e-06
8.74207e-09
1.36005e-06
3.39178e-08
8.4654e-08
1.33684e-06
1.40861e-06
-3.26475e-07
1.41612e-06
2.62469e-07
1.41568e-06
-2.64961e-07
1.42242e-06
2.01866e-07
1.42105e-06
-2.12014e-07
1.42704e-06
1.53824e-07
1.42473e-06
-1.69065e-07
1.43006e-06
1.16336e-07
1.42712e-06
-1.34297e-07
1.43194e-06
8.65397e-08
1.42862e-06
-1.06026e-07
1.43299e-06
6.30029e-08
1.42951e-06
-8.3131e-08
1.43346e-06
4.45905e-08
1.42994e-06
-6.45075e-08
1.43348e-06
3.02578e-08
1.43003e-06
-4.91746e-08
1.43315e-06
1.91383e-08
1.42981e-06
-3.63681e-08
1.43248e-06
1.06065e-08
1.42928e-06
-2.54148e-08
1.43144e-06
4.31621e-09
1.42844e-06
-1.57248e-08
1.42982e-06
3.8603e-10
1.42733e-06
-6.88162e-09
1.42708e-06
-3.75946e-11
1.42552e-06
3.14816e-09
1.42108e-06
1.31797e-08
1.41819e-06
3.68124e-08
1.10593e-07
1.39225e-06
1.47434e-06
-3.2514e-07
1.48192e-06
2.54891e-07
1.48018e-06
-2.63221e-07
1.48695e-06
1.951e-07
1.48464e-06
-2.09708e-07
1.49056e-06
1.47904e-07
1.48768e-06
-1.66188e-07
1.49279e-06
1.11232e-07
1.48962e-06
-1.31127e-07
1.49406e-06
8.20919e-08
1.49082e-06
-1.02785e-07
1.49472e-06
5.91044e-08
1.49153e-06
-7.99431e-08
1.49498e-06
4.11484e-08
1.49188e-06
-6.1415e-08
1.49495e-06
2.71917e-08
1.49194e-06
-4.61689e-08
1.49468e-06
1.63997e-08
1.49174e-06
-3.34251e-08
1.49415e-06
8.19976e-09
1.49126e-06
-2.2524e-08
1.49323e-06
2.33896e-09
1.49046e-06
-1.2954e-08
1.49174e-06
-8.87413e-10
1.4892e-06
-4.3479e-09
1.48942e-06
-2.54209e-10
1.48649e-06
6.07697e-09
1.48428e-06
1.53871e-08
1.48318e-06
3.79177e-08
6.42123e-08
1.52956e-06
1.54355e-06
-3.22469e-07
1.55035e-06
2.48091e-07
1.54773e-06
-2.60605e-07
1.55378e-06
1.89049e-07
1.55104e-06
-2.06965e-07
1.55634e-06
1.42604e-07
1.55335e-06
-1.63198e-07
1.5579e-06
1.06686e-07
1.55482e-06
-1.28051e-07
1.5588e-06
7.81133e-08
1.55575e-06
-9.97431e-08
1.5593e-06
5.55587e-08
1.55633e-06
-7.69717e-08
1.55955e-06
3.79278e-08
1.55663e-06
-5.84977e-08
1.5596e-06
2.42226e-08
1.55671e-06
-4.32743e-08
1.55944e-06
1.36681e-08
1.55656e-06
-3.05444e-08
1.55899e-06
5.76755e-09
1.55616e-06
-1.96933e-08
1.55812e-06
3.826e-10
1.55546e-06
-1.0303e-08
1.55656e-06
-1.98599e-09
1.55444e-06
-2.22682e-09
1.55373e-06
4.6297e-10
1.55258e-06
7.22674e-09
1.54766e-06
2.02999e-08
1.54339e-06
4.21921e-08
9.51282e-08
1.51247e-06
1.61649e-06
-3.18831e-07
1.62232e-06
2.42256e-07
1.61912e-06
-2.57396e-07
1.62433e-06
1.83832e-07
1.62133e-06
-2.0396e-07
1.62602e-06
1.37911e-07
1.62295e-06
-1.60129e-07
1.62708e-06
1.02558e-07
1.62399e-06
-1.2496e-07
1.62773e-06
7.43755e-08
1.62467e-06
-9.66843e-08
1.62813e-06
5.20984e-08
1.62511e-06
-7.39493e-08
1.62836e-06
3.46771e-08
1.62535e-06
-5.54956e-08
1.62842e-06
2.11601e-08
1.62543e-06
-4.02867e-08
1.62826e-06
1.084e-08
1.62532e-06
-2.76045e-08
1.62779e-06
3.29972e-09
1.62499e-06
-1.68962e-08
1.62685e-06
-1.47772e-09
1.62436e-06
-7.80976e-09
1.62518e-06
-2.80687e-09
1.62338e-06
-4.29011e-10
1.62201e-06
1.82698e-09
1.62156e-06
7.68107e-09
1.61644e-06
2.54162e-08
1.61167e-06
4.69703e-08
1.31717e-07
1.57508e-06
1.69326e-06
-3.14515e-07
1.69841e-06
2.37109e-07
1.6947e-06
-2.53692e-07
1.69936e-06
1.79173e-07
1.69605e-06
-2.00649e-07
1.70043e-06
1.33535e-07
1.69713e-06
-1.56834e-07
1.70112e-06
9.85722e-08
1.69781e-06
-1.21651e-07
1.70154e-06
7.06401e-08
1.69826e-06
-9.33965e-08
1.70181e-06
4.8544e-08
1.69855e-06
-7.06926e-08
1.70194e-06
3.12867e-08
1.69873e-06
-5.22768e-08
1.70192e-06
1.79638e-08
1.69877e-06
-3.71327e-08
1.70167e-06
7.93346e-09
1.69865e-06
-2.45837e-08
1.7011e-06
8.50701e-10
1.69832e-06
-1.41188e-08
1.70008e-06
-3.23086e-09
1.69761e-06
-5.33776e-09
1.69857e-06
-3.77227e-09
1.69573e-06
2.41286e-09
1.69645e-06
1.11135e-09
1.69127e-06
1.28591e-08
1.69576e-06
2.09268e-08
1.69681e-06
4.5915e-08
8.22754e-08
1.74625e-06
1.77389e-06
-3.09684e-07
1.77879e-06
2.32214e-07
1.77457e-06
-2.49482e-07
1.77905e-06
1.74699e-07
1.77533e-06
-1.96931e-07
1.7797e-06
1.29165e-07
1.77604e-06
-1.53174e-07
1.78012e-06
9.4492e-08
1.77646e-06
-1.17985e-07
1.78035e-06
6.67459e-08
1.77672e-06
-8.97654e-08
1.78046e-06
4.48024e-08
1.77689e-06
-6.71249e-08
1.78046e-06
2.77229e-08
1.77699e-06
-4.88071e-08
1.7803e-06
1.46512e-08
1.77699e-06
-3.38213e-08
1.77991e-06
5.01426e-09
1.77687e-06
-2.15448e-08
1.77917e-06
-1.45056e-09
1.77655e-06
-1.1496e-08
1.77799e-06
-4.66989e-09
1.77581e-06
-3.15706e-09
1.7763e-06
-4.27151e-09
1.77371e-06
5.00881e-09
1.77427e-06
5.49065e-10
1.76815e-06
1.89773e-08
1.77454e-06
1.45348e-08
1.77617e-06
4.42854e-08
2.64996e-08
1.83195e-06
1.85846e-06
-3.044e-07
1.86349e-06
2.2719e-07
1.85872e-06
-2.44716e-07
1.86332e-06
1.70101e-07
1.85911e-06
-1.92723e-07
1.86371e-06
1.24568e-07
1.8596e-06
-1.4907e-07
1.86394e-06
9.01552e-08
1.85985e-06
-1.13897e-07
1.86401e-06
6.25915e-08
1.85999e-06
-8.57506e-08
1.86397e-06
4.08229e-08
1.86008e-06
-6.3235e-08
1.86383e-06
2.39801e-08
1.86013e-06
-4.51086e-08
1.86352e-06
1.12598e-08
1.86011e-06
-3.04108e-08
1.86296e-06
2.16021e-09
1.86e-06
-1.85785e-08
1.86204e-06
-3.49619e-09
1.85969e-06
-9.14665e-09
1.86066e-06
-5.64106e-09
1.85898e-06
-1.47572e-09
1.85859e-06
-3.87573e-09
1.85739e-06
6.20211e-09
1.85529e-06
2.65601e-09
1.85359e-06
2.06726e-08
1.84857e-06
1.95577e-08
1.83878e-06
5.4074e-08
6.2393e-08
1.80289e-06
1.94712e-06
-2.98679e-07
1.95253e-06
2.21776e-07
1.94716e-06
-2.39344e-07
1.95209e-06
1.65176e-07
1.94733e-06
-1.8797e-07
1.95231e-06
1.1959e-07
1.94772e-06
-1.44479e-07
1.95242e-06
8.54551e-08
1.94789e-06
-1.09363e-07
1.95237e-06
5.81111e-08
1.94796e-06
-8.1348e-08
1.95221e-06
3.65779e-08
1.94802e-06
-5.90456e-08
1.95193e-06
2.00703e-08
1.94806e-06
-4.12368e-08
1.95147e-06
7.84284e-09
1.94806e-06
-2.69929e-08
1.95075e-06
-5.342e-10
1.94798e-06
-1.58047e-08
1.94966e-06
-5.17919e-09
1.94769e-06
-7.17903e-09
1.94811e-06
-6.058e-09
1.94699e-06
-3.59479e-10
1.94579e-06
-2.66915e-09
1.94543e-06
6.56339e-09
1.9418e-06
6.27781e-09
1.94276e-06
1.97146e-08
1.9316e-06
3.07217e-08
1.92697e-06
5.87025e-08
9.36299e-08
1.89573e-06
2.04003e-06
-2.92519e-07
2.046e-06
2.15804e-07
2.03997e-06
-2.33316e-07
2.04536e-06
1.5979e-07
2.04002e-06
-1.82631e-07
2.04548e-06
1.14132e-07
2.04037e-06
-1.39374e-07
2.0455e-06
8.03246e-08
2.04051e-06
-1.04373e-07
2.04535e-06
5.32702e-08
2.04058e-06
-7.65748e-08
2.04509e-06
3.20679e-08
2.04065e-06
-5.46053e-08
2.04469e-06
1.60342e-08
2.04073e-06
-3.72775e-08
2.04409e-06
4.48452e-09
2.04079e-06
-2.36957e-08
2.0432e-06
-2.94183e-09
2.04076e-06
-1.33734e-08
2.04197e-06
-6.37946e-09
2.04049e-06
-5.70587e-09
2.0403e-06
-5.86821e-09
2.03965e-06
2.95093e-10
2.03811e-06
-1.13333e-09
2.03736e-06
7.31527e-09
2.03418e-06
9.45577e-09
2.03308e-06
2.0813e-08
2.02603e-06
3.77716e-08
2.01453e-06
7.02016e-08
1.26889e-07
1.98128e-06
2.13739e-06
-2.85908e-07
2.14403e-06
2.09166e-07
2.1373e-06
-2.26584e-07
2.14323e-06
1.53858e-07
2.13726e-06
-1.76668e-07
2.14327e-06
1.0813e-07
2.13763e-06
-1.33738e-07
2.14323e-06
7.47259e-08
2.13779e-06
-9.8934e-08
2.143e-06
4.8062e-08
2.13789e-06
-7.14642e-08
2.14263e-06
2.73213e-08
2.13801e-06
-4.99813e-08
2.14211e-06
1.19386e-08
2.13816e-06
-3.33338e-08
2.14136e-06
1.28564e-09
2.13831e-06
-2.06403e-08
2.14033e-06
-4.96214e-09
2.13834e-06
-1.13865e-08
2.139e-06
-7.04228e-09
2.138e-06
-4.70736e-09
2.13749e-06
-5.35077e-09
2.1366e-06
1.18242e-09
2.13576e-06
-2.94287e-10
2.13353e-06
9.54966e-09
2.13166e-06
1.13186e-08
2.12603e-06
2.6446e-08
2.132e-06
3.17994e-08
2.15564e-06
4.6564e-08
5.19998e-08
2.23053e-06
2.23941e-06
-2.78832e-07
2.2468e-06
2.01782e-07
2.23931e-06
-2.19096e-07
2.24585e-06
1.47316e-07
2.23923e-06
-1.70045e-07
2.24582e-06
1.01542e-07
2.23964e-06
-1.27562e-07
2.24572e-06
6.86464e-08
2.23985e-06
-9.30643e-08
2.2454e-06
4.25098e-08
2.24001e-06
-6.60721e-08
2.24493e-06
2.24029e-08
2.24022e-06
-4.52725e-08
2.24426e-06
7.89419e-09
2.24048e-06
-2.95515e-08
2.24336e-06
-1.59689e-09
2.24073e-06
-1.80054e-08
2.2422e-06
-6.4298e-09
2.24082e-06
-1.00106e-08
2.24079e-06
-7.01445e-09
2.24046e-06
-4.37623e-09
2.23912e-06
-4.01e-09
2.23924e-06
1.06763e-09
2.23688e-06
2.05845e-09
2.23627e-06
1.01586e-08
2.23286e-06
1.47325e-08
2.23045e-06
2.88563e-08
2.22341e-06
3.88395e-08
2.20737e-06
6.26028e-08
8.28542e-08
2.17652e-06
2.34632e-06
-2.71272e-07
2.35451e-06
1.93593e-07
2.34621e-06
-2.10805e-07
2.35341e-06
1.40118e-07
2.3461e-06
-1.62736e-07
2.3533e-06
9.43473e-08
2.34658e-06
-1.20843e-07
2.35313e-06
6.2094e-08
2.34687e-06
-8.67976e-08
2.35271e-06
3.66604e-08
2.34712e-06
-6.0473e-08
2.35212e-06
1.74027e-08
2.34744e-06
-4.0597e-08
2.3513e-06
4.03279e-09
2.34784e-06
-2.60867e-08
2.35024e-06
-4.00421e-09
2.34819e-06
-1.59493e-08
2.34898e-06
-7.22317e-09
2.3483e-06
-9.32833e-09
2.34755e-06
-6.26336e-09
2.34791e-06
-4.73309e-09
2.3456e-06
-1.70384e-09
2.347e-06
-3.37142e-10
2.34275e-06
6.31279e-09
2.34445e-06
8.45907e-09
2.33856e-06
2.06194e-08
2.33944e-06
2.79791e-08
2.32462e-06
5.36562e-08
2.31508e-06
7.2148e-08
1.07098e-07
2.29083e-06
2.45834e-06
-2.63216e-07
2.46737e-06
1.84558e-07
2.45824e-06
-2.01675e-07
2.46612e-06
1.32241e-07
2.45811e-06
-1.54729e-07
2.46591e-06
8.65481e-08
2.45868e-06
-1.13607e-07
2.46566e-06
5.51079e-08
2.45906e-06
-8.01983e-08
2.46513e-06
3.05977e-08
2.45943e-06
-5.4776e-08
2.46439e-06
1.24453e-08
2.45988e-06
-3.60938e-08
2.46343e-06
4.90397e-10
2.4604e-06
-2.30626e-08
2.46225e-06
-5.85392e-09
2.4608e-06
-1.44992e-08
2.461e-06
-7.42156e-09
2.46076e-06
-9.0845e-09
2.45978e-06
-5.28905e-09
2.45995e-06
-4.90604e-09
2.45841e-06
-1.57009e-10
2.45818e-06
-1.12534e-10
2.456e-06
8.49586e-09
2.45452e-06
9.93658e-09
2.45136e-06
2.37773e-08
2.44882e-06
3.05221e-08
2.44068e-06
6.17931e-08
2.42251e-06
9.03196e-08
1.41296e-07
2.38831e-06
2.57573e-06
-2.54656e-07
2.58564e-06
1.74649e-07
2.57565e-06
-1.91683e-07
2.58421e-06
1.23678e-07
2.57552e-06
-1.46029e-07
2.58389e-06
7.81712e-08
2.57619e-06
-1.059e-07
2.58354e-06
4.77545e-08
2.5767e-06
-7.33594e-08
2.58286e-06
2.44378e-08
2.5772e-06
-4.91204e-08
2.58197e-06
7.68185e-09
2.57779e-06
-3.19183e-08
2.58087e-06
-2.58999e-09
2.5784e-06
-2.0594e-08
2.57964e-06
-7.0935e-09
2.57877e-06
-1.36266e-08
2.57851e-06
-7.15932e-09
2.57846e-06
-9.03762e-09
2.57765e-06
-4.47979e-09
2.57694e-06
-4.19728e-09
2.57715e-06
-3.63147e-10
2.57419e-06
2.8455e-09
2.57529e-06
7.39476e-09
2.56984e-06
1.53872e-08
2.5691e-06
2.45218e-08
2.56121e-06
3.84105e-08
2.57821e-06
4.47878e-08
2.614e-06
5.45313e-08
5.44664e-08
2.70083e-06
2.69876e-06
-2.45589e-07
2.70956e-06
1.63849e-07
2.6987e-06
-1.80823e-07
2.70794e-06
1.14438e-07
2.69858e-06
-1.36665e-07
2.70748e-06
6.92662e-08
2.69938e-06
-9.77966e-08
2.707e-06
4.01328e-08
2.70005e-06
-6.64123e-08
2.70615e-06
1.83415e-08
2.70072e-06
-4.36919e-08
2.70509e-06
3.31387e-09
2.70146e-06
-2.82895e-08
2.70386e-06
-4.98984e-09
2.70213e-06
-1.88667e-08
2.70263e-06
-7.58568e-09
2.70245e-06
-1.34521e-08
2.70152e-06
-6.23268e-09
2.70208e-06
-9.59671e-09
2.7005e-06
-2.89205e-09
2.70101e-06
-4.71519e-09
2.69911e-06
1.54143e-09
2.69883e-06
3.12869e-09
2.69654e-06
9.6818e-09
2.69462e-06
1.73042e-08
2.69172e-06
2.74276e-08
2.6882e-06
4.1924e-08
2.67914e-06
5.38494e-08
2.65799e-06
7.56834e-08
8.93082e-08
2.62315e-06
2.82769e-06
-2.36011e-07
2.83939e-06
1.52147e-07
2.82767e-06
-1.69096e-07
2.83756e-06
1.0454e-07
2.82757e-06
-1.2667e-07
2.83694e-06
5.98919e-08
2.82852e-06
-8.93751e-08
2.83631e-06
3.23431e-08
2.82938e-06
-5.9481e-08
2.83529e-06
1.2433e-08
2.83017e-06
-3.85781e-08
2.8341e-06
-6.11674e-10
2.83104e-06
-2.52311e-08
2.83278e-06
-6.7253e-09
2.83173e-06
-1.78216e-08
2.83159e-06
-7.44208e-09
2.83193e-06
-1.37986e-08
2.83055e-06
-4.84579e-09
2.8316e-06
-1.06532e-08
2.82913e-06
-4.1513e-10
2.83104e-06
-6.63216e-09
2.8267e-06
5.88696e-09
2.82991e-06
-8.66516e-11
2.8234e-06
1.6197e-08
2.82694e-06
1.37603e-08
2.81926e-06
3.51098e-08
2.82034e-06
4.08401e-08
2.79975e-06
7.4446e-08
2.79031e-06
8.51227e-08
1.1406e-07
2.76556e-06
2.96281e-06
-2.2593e-07
2.9754e-06
1.39564e-07
2.96284e-06
-1.56543e-07
2.97334e-06
9.40471e-08
2.96279e-06
-1.16125e-07
2.97252e-06
5.01666e-08
2.96392e-06
-8.07826e-08
2.9717e-06
2.45683e-08
2.96501e-06
-5.27924e-08
2.97044e-06
7.00809e-09
2.96609e-06
-3.42322e-08
2.96899e-06
-3.50993e-09
2.96704e-06
-2.32858e-08
2.96774e-06
-7.42697e-09
2.96755e-06
-1.76234e-08
2.96683e-06
-6.72581e-09
2.96739e-06
-1.43586e-08
2.96614e-06
-3.60103e-09
2.96674e-06
-1.12516e-08
2.96514e-06
1.18806e-09
2.96533e-06
-6.82727e-09
2.96341e-06
7.81535e-09
2.96321e-06
1.06247e-10
2.96e-06
1.94117e-08
2.95835e-06
1.54098e-08
2.95582e-06
3.76413e-08
2.95311e-06
4.35529e-08
2.94209e-06
8.54626e-08
2.91662e-06
1.10592e-07
1.5198e-07
2.8787e-06
3.10445e-06
-2.15372e-07
3.11787e-06
1.26138e-07
3.10456e-06
-1.43227e-07
3.11557e-06
8.30402e-08
3.10457e-06
-1.05125e-07
3.11452e-06
4.02107e-08
3.10589e-06
-7.21493e-08
3.11352e-06
1.69385e-08
3.10718e-06
-4.64495e-08
3.11212e-06
2.06599e-09
3.10828e-06
-3.03918e-08
3.11076e-06
-5.98961e-09
3.10902e-06
-2.15452e-08
3.10994e-06
-8.34962e-09
3.10883e-06
-1.65099e-08
3.10987e-06
-7.76782e-09
3.10766e-06
-1.21465e-08
3.11024e-06
-6.18974e-09
3.10557e-06
-6.57676e-09
3.11065e-06
-3.88929e-09
3.10269e-06
1.12608e-09
3.1104e-06
1.13982e-10
3.09975e-06
1.07515e-08
3.10777e-06
1.13963e-08
3.0955e-06
2.76707e-08
3.09892e-06
3.42276e-08
3.08836e-06
5.4115e-08
3.12119e-06
5.26308e-08
3.16728e-06
6.45028e-08
5.98676e-08
3.25939e-06
3.25291e-06
-2.04372e-07
3.26712e-06
1.1193e-07
3.25315e-06
-1.2926e-07
3.26455e-06
7.16408e-08
3.25324e-06
-9.38135e-08
3.26325e-06
3.02043e-08
3.25478e-06
-6.36813e-08
3.26202e-06
9.69682e-09
3.25633e-06
-4.07611e-08
3.26037e-06
-1.96946e-09
3.25765e-06
-2.76769e-08
3.25887e-06
-7.21025e-09
3.25849e-06
-2.11623e-08
3.25791e-06
-7.76585e-09
3.2586e-06
-1.7202e-08
3.25723e-06
-6.4009e-09
3.25843e-06
-1.33434e-08
3.25615e-06
-3.91135e-09
3.25823e-06
-8.66257e-09
3.25433e-06
2.00975e-11
3.25762e-06
-2.17244e-09
3.25155e-06
6.18327e-09
3.2553e-06
7.00391e-09
3.24812e-06
1.85759e-08
3.25203e-06
2.3763e-08
3.24582e-06
4.04417e-08
3.2473e-06
5.26321e-08
3.22658e-06
7.33469e-08
3.20303e-06
8.80601e-08
1.01703e-07
3.16119e-06
3.40852e-06
-1.92963e-07
3.42344e-06
9.70169e-08
3.40895e-06
-1.14773e-07
3.42059e-06
5.99955e-08
3.40913e-06
-8.23512e-08
3.41898e-06
2.03564e-08
3.41091e-06
-5.56121e-08
3.41749e-06
3.11223e-09
3.4128e-06
-3.60627e-08
3.41554e-06
-4.70905e-09
3.41434e-06
-2.64807e-08
3.41396e-06
-6.82749e-09
3.41512e-06
-2.23264e-08
3.41302e-06
-5.66533e-09
3.41526e-06
-1.94388e-08
3.41219e-06
-3.32886e-09
3.41533e-06
-1.64887e-08
3.4109e-06
5.1897e-10
3.41491e-06
-1.26749e-08
3.4092e-06
5.73378e-09
3.41424e-06
-7.21345e-09
3.4062e-06
1.42219e-08
3.41213e-06
1.07342e-09
3.40294e-06
2.777e-08
3.40796e-06
1.87443e-08
3.40169e-06
4.67065e-08
3.40649e-06
4.78384e-08
3.3821e-06
9.77283e-08
3.35509e-06
1.15073e-07
1.4619e-07
3.3106e-06
3.57166e-06
-1.8121e-07
3.58715e-06
8.15283e-08
3.57233e-06
-9.99551e-08
3.58404e-06
4.82846e-08
3.57258e-06
-7.08926e-08
3.58213e-06
1.08025e-08
3.57446e-06
-4.79351e-08
3.58065e-06
-3.08435e-09
3.57619e-06
-3.16001e-08
3.57913e-06
-7.6521e-09
3.57699e-06
-2.434e-08
3.5786e-06
-8.42874e-09
3.57656e-06
-2.02879e-08
3.57901e-06
-8.11733e-09
3.5751e-06
-1.55311e-08
3.57993e-06
-8.15508e-09
3.5728e-06
-9.36575e-09
3.5814e-06
-8.07866e-09
3.56975e-06
-1.02414e-09
3.58196e-06
-6.47129e-09
3.56655e-06
8.18838e-09
3.5821e-06
-1.32655e-09
3.56346e-06
1.97172e-08
3.57977e-06
1.1457e-08
3.55949e-06
3.90252e-08
3.5697e-06
3.64968e-08
3.55558e-06
6.19633e-08
3.60405e-06
4.92545e-08
3.65613e-06
6.29908e-08
5.83036e-08
3.74402e-06
3.74269e-06
-1.69195e-07
3.75859e-06
6.56293e-08
3.74371e-06
-8.50728e-08
3.75523e-06
3.67626e-08
3.74402e-06
-5.96874e-08
3.75294e-06
1.88151e-09
3.74607e-06
-4.10647e-08
3.7513e-06
-8.30985e-09
3.74798e-06
-2.82826e-08
3.74961e-06
-9.28368e-09
3.74919e-06
-2.39127e-08
3.74837e-06
-7.61415e-09
3.74995e-06
-2.18649e-08
3.74691e-06
-5.07978e-09
3.75083e-06
-1.94467e-08
3.7452e-06
-2.53173e-09
3.75136e-06
-1.55235e-08
3.74336e-06
-7.21274e-11
3.7516e-06
-9.27323e-09
3.74172e-06
3.41195e-09
3.74976e-06
1.45332e-10
3.73912e-06
9.31676e-09
3.74664e-06
1.21981e-08
3.737e-06
2.10986e-08
3.74479e-06
3.12367e-08
3.73796e-06
4.33232e-08
3.73768e-06
6.2246e-08
3.7144e-06
7.25366e-08
3.68398e-06
9.34085e-08
1.07523e-07
3.63476e-06
3.92198e-06
-1.56988e-07
3.93809e-06
4.95189e-08
3.92349e-06
-7.04723e-08
3.93449e-06
2.57602e-08
3.92388e-06
-4.90745e-08
3.93174e-06
-5.97289e-09
3.92596e-06
-3.52903e-08
3.93015e-06
-1.24992e-08
3.92772e-06
-2.58576e-08
3.92871e-06
-1.02641e-08
3.92881e-06
-2.40188e-08
3.92736e-06
-6.16299e-09
3.93013e-06
-2.46377e-08
3.9252e-06
-1.43881e-10
3.93149e-06
-2.5735e-08
3.92281e-06
6.14706e-09
3.93308e-06
-2.57985e-08
3.91977e-06
1.3239e-08
3.93436e-06
-2.38607e-08
3.91631e-06
2.14634e-08
3.93484e-06
-1.83926e-08
3.91301e-06
3.11556e-08
3.93355e-06
-8.34868e-09
3.91132e-06
4.3327e-08
3.93374e-06
8.81951e-09
3.91537e-06
6.16946e-08
3.93625e-06
4.13646e-08
3.8905e-06
1.18287e-07
3.85793e-06
1.25976e-07
1.55298e-07
3.81016e-06
4.10995e-06
-1.44691e-07
4.12605e-06
3.34203e-08
4.11206e-06
-5.64767e-08
4.12236e-06
1.54541e-08
4.11219e-06
-3.89067e-08
4.11954e-06
-1.33233e-08
4.11369e-06
-2.94323e-08
4.11898e-06
-1.77955e-08
4.11388e-06
-2.07541e-08
4.11963e-06
-1.60117e-08
4.11258e-06
-1.69718e-08
4.12092e-06
-1.45077e-08
4.11044e-06
-1.4158e-08
4.12256e-06
-1.22548e-08
4.10826e-06
-1.14391e-08
4.12359e-06
-9.18166e-09
4.10624e-06
-8.45095e-09
4.12405e-06
-4.57066e-09
4.10444e-06
-4.24657e-09
4.12348e-06
2.41917e-09
4.10288e-06
2.2119e-09
4.121e-06
1.30298e-08
4.10068e-06
1.19691e-08
4.11664e-06
2.73734e-08
4.09798e-06
2.74805e-08
4.11611e-06
4.35598e-08
4.10757e-06
4.99106e-08
4.15826e-06
6.75935e-08
4.21033e-06
7.39054e-08
8.52149e-08
4.28041e-06
4.30708e-06
-1.32464e-07
4.32279e-06
1.77084e-08
4.3103e-06
-4.39903e-08
4.31897e-06
6.78581e-09
4.31019e-06
-3.01276e-08
4.31557e-06
-1.87075e-08
4.31143e-06
-2.52892e-08
4.31512e-06
-2.14877e-08
4.31149e-06
-1.71183e-08
4.31597e-06
-2.04991e-08
4.31026e-06
-1.12595e-08
4.31719e-06
-2.1436e-08
4.30833e-06
-5.2976e-09
4.31882e-06
-2.27425e-08
4.30583e-06
1.55114e-09
4.32011e-06
-2.34653e-08
4.30358e-06
8.08048e-09
4.32087e-06
-2.1856e-08
4.30137e-06
1.52453e-08
4.3206e-06
-1.6803e-08
4.29917e-06
2.3638e-08
4.31929e-06
-7.09299e-09
4.29672e-06
3.45428e-08
4.31491e-06
9.17846e-09
4.29298e-06
4.94155e-08
4.31216e-06
2.43808e-08
4.31045e-06
5.16223e-08
4.36137e-06
1.66657e-08
4.40968e-06
2.55974e-08
4.27867e-09
4.49062e-06
4.51382e-06
-1.20506e-07
4.52861e-06
2.9098e-09
4.51945e-06
-3.48282e-08
4.52494e-06
1.29403e-09
4.51796e-06
-2.31401e-08
4.52087e-06
-2.16188e-08
4.51886e-06
-2.32845e-08
4.51961e-06
-2.22344e-08
4.51986e-06
-1.73692e-08
4.51925e-06
-1.98925e-08
4.52108e-06
-1.30807e-08
4.51811e-06
-1.84669e-08
4.52194e-06
-9.13527e-09
4.51656e-06
-1.73628e-08
4.52262e-06
-4.50789e-09
4.51515e-06
-1.59879e-08
4.52267e-06
5.52485e-10
4.51384e-06
-1.30245e-08
4.52181e-06
7.27724e-09
4.51191e-06
-6.90754e-09
4.51897e-06
1.65873e-08
4.50813e-06
3.73974e-09
4.51288e-06
2.97923e-08
4.50429e-06
1.77732e-08
4.51204e-06
4.16689e-08
4.50485e-06
3.15656e-08
4.50851e-06
4.7962e-08
4.47998e-06
4.51956e-08
4.44233e-06
6.32451e-08
6.19309e-08
4.38468e-06
4.7304e-06
-1.08789e-07
4.74459e-06
-1.12828e-08
4.73646e-06
-2.66961e-08
4.74158e-06
-3.82975e-09
4.7351e-06
-1.6658e-08
4.73665e-06
-2.31691e-08
4.73563e-06
-2.22587e-08
4.73488e-06
-2.14896e-08
4.73773e-06
-2.02222e-08
4.73379e-06
-1.5946e-08
4.73961e-06
-1.89075e-08
4.73185e-06
-1.07022e-08
4.74112e-06
-1.84035e-08
4.72948e-06
-5.72371e-09
4.74264e-06
-1.76668e-08
4.72732e-06
-6.72561e-10
4.74321e-06
-1.53343e-08
4.72566e-06
4.52528e-09
4.74281e-06
-9.86974e-09
4.72421e-06
1.16924e-08
4.74125e-06
-4.57826e-10
4.72272e-06
2.22745e-08
4.73988e-06
1.26287e-08
4.72277e-06
3.48831e-08
4.73662e-06
2.78206e-08
4.71438e-06
5.38011e-08
4.71149e-06
5.08515e-08
4.68667e-06
7.00163e-08
4.68021e-06
6.97029e-08
9.43562e-08
4.64779e-06
4.95775e-06
-9.77456e-08
4.96945e-06
-2.2974e-08
4.96704e-06
-2.42949e-08
4.96598e-06
-2.76259e-09
4.96606e-06
-1.67399e-08
4.9612e-06
-1.83147e-08
4.96415e-06
-2.52052e-08
4.9605e-06
-1.78401e-08
4.96498e-06
-2.46991e-08
4.96059e-06
-1.15562e-08
4.96561e-06
-2.39266e-08
4.96016e-06
-5.25066e-09
4.96571e-06
-2.39565e-08
4.95944e-06
5.41857e-10
4.96508e-06
-2.33049e-08
4.95924e-06
5.17406e-09
4.96427e-06
-2.0374e-08
4.95784e-06
1.09628e-08
4.96144e-06
-1.34727e-08
4.95406e-06
1.90754e-08
4.95602e-06
-2.42382e-09
4.94937e-06
2.89323e-08
4.95075e-06
1.12492e-08
4.94707e-06
3.85631e-08
4.94747e-06
2.74112e-08
4.94928e-06
5.19929e-08
4.94715e-06
5.29855e-08
4.91866e-06
9.85077e-08
4.87516e-06
1.13195e-07
1.30906e-07
4.83861e-06
5.19568e-06
-8.71082e-08
5.20698e-06
-3.42754e-08
5.2026e-06
-1.99117e-08
5.20672e-06
-6.88597e-09
5.19822e-06
-8.24401e-09
5.20486e-06
-2.49465e-08
5.19551e-06
-1.5862e-08
5.2063e-06
-2.86305e-08
5.19382e-06
-1.22129e-08
5.20846e-06
-2.62019e-08
5.19175e-06
-7.21195e-09
5.21014e-06
-2.36437e-08
5.18949e-06
-3.30974e-09
5.21151e-06
-2.1478e-08
5.18777e-06
4.35227e-10
5.21154e-06
-1.85939e-08
5.18709e-06
4.07839e-09
5.21071e-06
-1.26548e-08
5.18678e-06
1.04561e-08
5.20941e-06
-3.55472e-09
5.18677e-06
2.02172e-08
5.20564e-06
1.006e-08
5.18232e-06
3.45723e-08
5.19291e-06
2.79686e-08
5.17273e-06
4.75922e-08
5.18441e-06
4.03138e-08
5.19027e-06
4.71253e-08
5.26245e-06
2.63315e-08
5.34941e-06
2.62292e-08
2.69868e-08
5.45333e-06
5.44556e-06
-7.74756e-08
5.45217e-06
-4.0889e-08
5.45591e-06
-2.36518e-08
5.45018e-06
-1.15482e-09
5.45554e-06
-1.36087e-08
5.44614e-06
-1.55405e-08
5.45255e-06
-2.22785e-08
5.44584e-06
-2.19124e-08
5.45207e-06
-1.8451e-08
5.44697e-06
-2.10935e-08
5.45184e-06
-1.20883e-08
5.44777e-06
-1.95736e-08
5.45089e-06
-6.42866e-09
5.44653e-06
-1.71165e-08
5.44856e-06
-1.59193e-09
5.44418e-06
-1.42196e-08
5.44462e-06
3.6392e-09
5.44148e-06
-9.51452e-09
5.44262e-06
9.32014e-09
5.43875e-06
3.08591e-10
5.4393e-06
1.96722e-08
5.43522e-06
1.41434e-08
5.43556e-06
3.42319e-08
5.43357e-06
2.99568e-08
5.43479e-06
4.63692e-08
5.43406e-06
4.10448e-08
5.42344e-06
5.774e-08
5.39716e-06
5.26154e-08
5.35865e-06
6.47382e-08
6.48936e-08
5.32075e-06
5.70692e-06
-6.84347e-08
5.71278e-06
-4.67552e-08
5.71488e-06
-2.57504e-08
5.71524e-06
-1.51359e-09
5.71498e-06
-1.33502e-08
5.7109e-06
-1.14541e-08
5.71109e-06
-2.2468e-08
5.70724e-06
-1.80634e-08
5.71131e-06
-2.25248e-08
5.70771e-06
-1.74884e-08
5.71323e-06
-1.76146e-08
5.70737e-06
-1.37085e-08
5.71357e-06
-1.26315e-08
5.70631e-06
-9.85689e-09
5.71351e-06
-8.79724e-09
5.70469e-06
-5.39948e-09
5.7122e-06
-3.86243e-09
5.70199e-06
6.91432e-10
5.70703e-06
4.28296e-09
5.69776e-06
9.57627e-09
5.70244e-06
1.49951e-08
5.69551e-06
2.10681e-08
5.7006e-06
2.91468e-08
5.69353e-06
3.70256e-08
5.69381e-06
4.60855e-08
5.68134e-06
5.35152e-08
5.67645e-06
6.26342e-08
5.65931e-06
6.97546e-08
5.64438e-06
7.96695e-08
8.77983e-08
5.62147e-06
5.98104e-06
-6.02803e-08
5.98132e-06
-4.70386e-08
5.98879e-06
-3.32222e-08
5.9877e-06
-4.16463e-10
5.99014e-06
-1.57936e-08
5.98175e-06
-3.06226e-09
5.98751e-06
-2.82311e-08
5.97901e-06
-9.56375e-09
5.98813e-06
-3.16445e-08
5.97931e-06
-8.66711e-09
5.98847e-06
-2.6779e-08
5.97966e-06
-4.89015e-09
5.9873e-06
-2.02719e-08
5.9788e-06
-1.35714e-09
5.98301e-06
-1.30157e-08
5.97572e-06
1.89822e-09
5.97863e-06
-6.77837e-09
5.97296e-06
6.36093e-09
5.97573e-06
1.51949e-09
5.97061e-06
1.46885e-08
5.97348e-06
1.2135e-08
5.96883e-06
2.57148e-08
5.97238e-06
2.55908e-08
5.96733e-06
4.20785e-08
5.96683e-06
4.65856e-08
5.95493e-06
6.54118e-08
5.94879e-06
6.87822e-08
5.93188e-06
8.66601e-08
5.9192e-06
9.23465e-08
1.02788e-07
5.90421e-06
6.26825e-06
-5.30374e-08
6.26552e-06
-4.43146e-08
6.27628e-06
-4.39762e-08
6.27043e-06
5.42725e-09
6.27873e-06
-2.40967e-08
6.26607e-06
9.60042e-09
6.27583e-06
-3.79902e-08
6.26443e-06
1.84139e-09
6.27607e-06
-4.32837e-08
6.26482e-06
2.57449e-09
6.27603e-06
-3.79835e-08
6.26499e-06
6.14928e-09
6.27515e-06
-3.04356e-08
6.26453e-06
9.27002e-09
6.27353e-06
-2.20175e-08
6.26212e-06
1.3302e-08
6.26829e-06
-1.29403e-08
6.25811e-06
1.65359e-08
6.26344e-06
-3.80968e-09
6.25627e-06
2.18621e-08
6.2596e-06
8.80581e-09
6.25315e-06
3.21564e-08
6.25516e-06
2.35851e-08
6.25283e-06
4.44031e-08
6.26047e-06
3.89548e-08
6.25638e-06
6.94957e-08
6.24744e-06
7.77268e-08
6.21273e-06
1.2137e-07
6.16407e-06
1.41003e-07
1.29492e-07
6.13737e-06
6.56774e-06
-4.53106e-08
6.57733e-06
-5.39008e-08
6.56168e-06
-2.83258e-08
6.5807e-06
-1.35955e-08
6.56145e-06
-4.84283e-09
6.58179e-06
-1.07424e-08
6.5599e-06
-1.60974e-08
6.58162e-06
-1.98804e-08
6.5598e-06
-2.1461e-08
6.58172e-06
-1.93449e-08
6.55983e-06
-1.60965e-08
6.58112e-06
-1.51433e-08
6.56008e-06
-9.39141e-09
6.57986e-06
-1.05094e-08
6.56023e-06
-2.39594e-09
6.57818e-06
-4.64149e-09
6.56056e-06
4.68144e-09
6.57426e-06
2.83604e-09
6.55772e-06
1.27307e-08
6.56636e-06
1.32138e-08
6.55422e-06
2.09542e-08
6.56111e-06
2.52595e-08
6.54793e-06
3.67693e-08
6.5502e-06
4.21337e-08
6.54169e-06
4.74674e-08
6.5693e-06
4.18818e-08
6.60365e-06
4.33723e-08
6.68519e-06
3.98332e-08
6.7853e-06
4.0888e-08
5.86888e-08
6.85611e-06
6.88451e-06
-4.00332e-08
6.87811e-06
-4.75004e-08
6.89032e-06
-4.05299e-08
6.88312e-06
-6.39654e-09
6.8938e-06
-1.55242e-08
6.88354e-06
-4.87898e-10
6.88978e-06
-2.23299e-08
6.88177e-06
-1.18758e-08
6.88678e-06
-2.64722e-08
6.88048e-06
-1.30451e-08
6.88574e-06
-2.13546e-08
6.87905e-06
-8.45196e-09
6.8837e-06
-1.40457e-08
6.87576e-06
-2.56801e-09
6.88034e-06
-6.97073e-09
6.87284e-06
2.85695e-09
6.87721e-06
3.15121e-10
6.87066e-06
9.38234e-09
6.87402e-06
9.36628e-09
6.86916e-06
1.80744e-08
6.87175e-06
1.83683e-08
6.8724e-06
2.46125e-08
6.88625e-06
2.29193e-08
6.89909e-06
2.92872e-08
6.91013e-06
3.64282e-08
6.89663e-06
5.538e-08
6.86925e-06
7.07598e-08
6.81663e-06
9.24487e-08
6.75046e-06
1.07057e-07
8.1914e-08
6.72724e-06
7.21244e-06
-3.33387e-08
7.22458e-06
-5.96349e-08
7.20229e-06
-1.8247e-08
7.22644e-06
-3.05398e-08
7.20287e-06
8.03759e-09
7.22822e-06
-2.58303e-08
7.20236e-06
3.52451e-09
7.22736e-06
-3.68706e-08
7.20361e-06
-2.72531e-09
7.22568e-06
-3.51173e-08
7.20493e-06
-5.99134e-10
7.224e-06
-2.75265e-08
7.2063e-06
3.65523e-09
7.22154e-06
-1.78045e-08
7.2056e-06
8.96248e-09
7.21644e-06
-7.9752e-09
7.20133e-06
1.54215e-08
7.20887e-06
1.84413e-09
7.19776e-06
2.04726e-08
7.2048e-06
1.10351e-08
7.19685e-06
2.63229e-08
7.20178e-06
1.96815e-08
7.18958e-06
3.51127e-08
7.19001e-06
2.88613e-08
7.19021e-06
3.62267e-08
7.22173e-06
2.38645e-08
7.2688e-06
2.36905e-08
7.3524e-06
8.84346e-09
7.4559e-06
3.55817e-09