/*--------------------------------*- C++ -*----------------------------------*\
| =========                 |                                                 |
| \\      /  F ield         | OpenFOAM: The Open Source CFD Toolbox           |
|  \\    /   O peration     | Version:  v2006                                 |
|   \\  /    A nd           | Website:  www.openfoam.com                      |
|    \\/     M anipulation  |                                                 |
\*---------------------------------------------------------------------------*/
FoamFile
{
    version     2.0;
    format      ascii;
    class       volVectorField;
    location    "2.3";
    object      U;
}
// * * * * * * * * * * * * * * * * * * * * * * * * * * * * * * * * * * * * * //

dimensions      [0 1 -1 0 0 0 0];


internalField   nonuniform List<vector> 
26400
(
(0.909052 -0.00477315 0)
(1.09186 0.00444493 0)
(0.913098 -0.00428916 0)
(1.09152 0.00386606 0)
(0.919434 -0.00384373 0)
(1.09213 0.00333402 0)
(0.925091 -0.00346894 0)
(1.09265 0.00286277 0)
(0.930056 -0.00313416 0)
(1.09314 0.0024409 0)
(0.934344 -0.00283069 0)
(1.09361 0.00206372 0)
(0.937944 -0.00255999 0)
(1.09411 0.00172987 0)
(0.940825 -0.00231875 0)
(1.0947 0.00143441 0)
(0.942917 -0.00210047 0)
(1.09547 0.00117032 0)
(0.944108 -0.00189831 0)
(1.09654 0.000931115 0)
(0.944232 -0.00170198 0)
(1.09799 0.00071165 0)
(0.943051 -0.0014909 0)
(1.09992 0.000505631 0)
(0.940231 -0.00121276 0)
(1.10228 0.000292406 0)
(0.935261 -0.000674811 0)
(1.10458 2.49283e-05 0)
(0.926805 0.00111016 0)
(1.10573 0.000366377 0)
(0.915943 -0.00481363 0)
(1.08603 0.0044469 0)
(0.922501 -0.00435453 0)
(1.08566 0.00386474 0)
(0.930488 -0.00392058 0)
(1.08561 0.00333243 0)
(0.937501 -0.00354912 0)
(1.08508 0.00286457 0)
(0.943806 -0.0032156 0)
(1.08418 0.00244648 0)
(0.949577 -0.00291263 0)
(1.08288 0.00207333 0)
(0.954943 -0.00264163 0)
(1.08114 0.00174399 0)
(0.960036 -0.00239901 0)
(1.07891 0.00145408 0)
(0.964999 -0.0021779 0)
(1.07604 0.00119775 0)
(0.970012 -0.00197119 0)
(1.07232 0.000970752 0)
(0.975312 -0.00176744 0)
(1.0674 0.000771549 0)
(0.981185 -0.00154032 0)
(1.06079 0.000593626 0)
(0.987942 -0.00121861 0)
(1.05177 0.000394258 0)
(0.995774 -0.000550822 0)
(1.03909 0.000213552 0)
(1.00437 0.00201963 0)
(1.02009 0.00151479 0)
(0.928122 -0.00486003 0)
(1.07425 0.00442333 0)
(0.937576 -0.00441652 0)
(1.07358 0.00383822 0)
(0.947699 -0.00398516 0)
(1.07248 0.00330618 0)
(0.956455 -0.00360635 0)
(1.07042 0.00283861 0)
(0.964343 -0.00326235 0)
(1.06764 0.00241725 0)
(0.971648 -0.0029453 0)
(1.06421 0.00203655 0)
(0.978543 -0.00265485 0)
(1.06017 0.00169383 0)
(0.985152 -0.00238487 0)
(1.05555 0.0013823 0)
(0.991536 -0.00212466 0)
(1.05038 0.00109249 0)
(0.997689 -0.00186181 0)
(1.04471 0.000815344 0)
(1.0035 -0.00157865 0)
(1.03866 0.000546276 0)
(1.00875 -0.0012487 0)
(1.03239 0.000287265 0)
(1.01302 -0.000821635 0)
(1.02613 4.72219e-05 0)
(1.01565 -0.000133793 0)
(1.01991 5.64392e-05 0)
(1.01544 0.002166 0)
(1.01418 0.00376162 0)
(0.943434 -0.00489311 0)
(1.05836 0.00434836 0)
(0.954378 -0.00445067 0)
(1.05721 0.00376197 0)
(0.965637 -0.00400685 0)
(1.05521 0.0032289 0)
(0.975143 -0.00360741 0)
(1.05209 0.00275689 0)
(0.983422 -0.0032408 0)
(1.04831 0.00232562 0)
(0.990746 -0.00289869 0)
(1.04411 0.00193044 0)
(0.997231 -0.00258017 0)
(1.0397 0.00156924 0)
(1.00292 -0.00227913 0)
(1.03528 0.00123666 0)
(1.00777 -0.00198585 0)
(1.03104 0.000925958 0)
(1.01172 -0.00168991 0)
(1.02713 0.00063232 0)
(1.01464 -0.00137628 0)
(1.02366 0.000358327 0)
(1.01643 -0.00102456 0)
(1.02065 0.000118067 0)
(1.01696 -0.000580225 0)
(1.01797 -4.65597e-05 0)
(1.01605 0.000154417 0)
(1.01518 0.000239643 0)
(1.01338 0.00254383 0)
(1.01233 0.00593917 0)
(0.959208 -0.00490495 0)
(1.04141 0.00423394 0)
(0.969556 -0.00445488 0)
(1.03993 0.00364675 0)
(0.980194 -0.00399205 0)
(1.03769 0.00311307 0)
(0.988828 -0.00356834 0)
(1.03458 0.00263844 0)
(0.99592 -0.00317872 0)
(1.03117 0.00220159 0)
(1.00171 -0.00281538 0)
(1.02779 0.00180003 0)
(1.00634 -0.00247774 0)
(1.02466 0.0014333 0)
(1.00989 -0.00216006 0)
(1.02194 0.00109785 0)
(1.01244 -0.00185294 0)
(1.01968 0.000788897 0)
(1.01407 -0.00154618 0)
(1.01786 0.000503789 0)
(1.01484 -0.00122503 0)
(1.01636 0.000249613 0)
(1.01483 -0.000871464 0)
(1.01501 4.55286e-05 0)
(1.01407 -0.00046226 0)
(1.0135 -6.97875e-06 0)
(1.01246 2.60018e-05 0)
(1.01143 0.00109468 0)
(1.00989 0.00164923 0)
(1.00916 0.00843217 0)
(0.973064 -0.00489363 0)
(1.02635 0.00410635 0)
(0.981124 -0.00443456 0)
(1.02489 0.00351918 0)
(0.989704 -0.00395534 0)
(1.02309 0.00298756 0)
(0.996318 -0.00351207 0)
(1.02081 0.00251602 0)
(1.00139 -0.00310603 0)
(1.01857 0.00208131 0)
(1.00518 -0.00272985 0)
(1.01659 0.00168226 0)
(1.00789 -0.00238217 0)
(1.01498 0.00131873 0)
(1.00971 -0.00205611 0)
(1.01374 0.000987238 0)
(1.01081 -0.00174109 0)
(1.01281 0.000683745 0)
(1.01131 -0.00142666 0)
(1.01205 0.000408206 0)
(1.01131 -0.00110033 0)
(1.01132 0.00017465 0)
(1.01086 -0.000745581 0)
(1.01045 8.42546e-06 0)
(1.00993 -0.000363622 0)
(1.0092 4.20948e-05 0)
(1.00838 0.000222032 0)
(1.00729 0.00105848 0)
(1.00622 0.00260462 0)
(1.0055 0.00619692 0)
(0.983647 -0.00486169 0)
(1.01489 0.00398709 0)
(0.988729 -0.0043971 0)
(1.01377 0.00340095 0)
(0.994746 -0.00390798 0)
(1.01271 0.00287295 0)
(0.999129 -0.00345146 0)
(1.01142 0.00240726 0)
(1.00228 -0.00303451 0)
(1.01029 0.00197679 0)
(1.00448 -0.00264961 0)
(1.0094 0.0015804 0)
(1.00594 -0.00229357 0)
(1.00875 0.00121708 0)
(1.00684 -0.0019573 0)
(1.00829 0.000882337 0)
(1.00732 -0.00162808 0)
(1.00792 0.000572158 0)
(1.00746 -0.00129439 0)
(1.00754 0.000288262 0)
(1.0073 -0.00094443 0)
(1.00705 4.84631e-05 0)
(1.0068 -0.000548872 0)
(1.00631 -0.000120034 0)
(1.00588 -0.000109756 0)
(1.00516 -0.00010778 0)
(1.00439 0.000767679 0)
(1.00343 0.000588422 0)
(1.00239 0.00409033 0)
(1.00196 0.0046647 0)
(0.990789 -0.00481398 0)
(1.00729 0.00388557 0)
(0.993159 -0.00434814 0)
(1.00656 0.00330045 0)
(0.996939 -0.00385481 0)
(1.00615 0.0027744 0)
(0.999541 -0.00338919 0)
(1.00558 0.00231282 0)
(1.00133 -0.00296381 0)
(1.00512 0.00188394 0)
(1.00254 -0.00257149 0)
(1.0048 0.00148696 0)
(1.00332 -0.00220792 0)
(1.00457 0.00112123 0)
(1.0038 -0.00186327 0)
(1.00441 0.000783288 0)
(1.00403 -0.00152513 0)
(1.00423 0.000472179 0)
(1.00405 -0.00118451 0)
(1.00397 0.000195263 0)
(1.00383 -0.000835555 0)
(1.00356 -2.32336e-05 0)
(1.00331 -0.000467929 0)
(1.00287 -0.000117515 0)
(1.0024 -8.95241e-05 0)
(1.00177 0.000137176 0)
(1.00096 0.00028749 0)
(1.00018 0.00185786 0)
(0.99922 0.0025964 0)
(0.998987 0.0102066 0)
(0.99513 -0.0047549 0)
(1.00277 0.00380005 0)
(0.995537 -0.0042902 0)
(1.00235 0.00321474 0)
(0.997763 -0.00379596 0)
(1.00233 0.00268671 0)
(0.999205 -0.00332287 0)
(1.00214 0.00222532 0)
(1.00016 -0.00288917 0)
(1.00198 0.00179374 0)
(1.00081 -0.00248869 0)
(1.00187 0.00139211 0)
(1.00123 -0.00211652 0)
(1.00179 0.00102084 0)
(1.00148 -0.00176275 0)
(1.00171 0.000678317 0)
(1.00157 -0.00141601 0)
(1.00158 0.000367326 0)
(1.0015 -0.00107013 0)
(1.00134 0.000100576 0)
(1.00123 -0.000715835 0)
(1.00093 -9.94409e-05 0)
(1.00069 -0.000364458 0)
(1.00024 -0.000143385 0)
(0.999778 1.00368e-05 0)
(0.999117 0.000193296 0)
(0.998431 0.000403998 0)
(0.997596 0.00204036 0)
(0.997193 0.0023206 0)
(0.996669 0.0100175 0)
(0.997563 -0.00468709 0)
(1.00029 0.00372307 0)
(0.996775 -0.00422371 0)
(1.00005 0.00313618 0)
(0.99808 -0.00372997 0)
(1.00022 0.0026021 0)
(0.998858 -0.00324968 0)
(1.00018 0.0021374 0)
(0.999351 -0.0028067 0)
(1.00013 0.00169946 0)
(0.999674 -0.0023962 0)
(1.00008 0.00128899 0)
(0.999871 -0.00201224 0)
(1.00003 0.000907011 0)
(0.999968 -0.00164421 0)
(0.999955 0.000552909 0)
(0.999957 -0.00128096 0)
(0.99982 0.000232402 0)
(0.999812 -0.000917742 0)
(0.999574 -3.94142e-05 0)
(0.999487 -0.000541829 0)
(0.999147 -0.000238721 0)
(0.998911 -0.000152486 0)
(0.998435 -0.000294708 0)
(0.997985 0.000322911 0)
(0.997301 -0.000107961 0)
(0.99667 0.00138526 0)
(0.995839 0.000760222 0)
(0.995625 0.00391658 0)
(0.995278 0.00263716 0)
(0.998854 -0.00461183 0)
(0.998995 0.00364691 0)
(0.997425 -0.00414828 0)
(0.998846 0.00305781 0)
(0.998237 -0.00365569 0)
(0.9991 0.00251508 0)
(0.998662 -0.00316861 0)
(0.999118 0.00204616 0)
(0.998897 -0.00271692 0)
(0.999095 0.00160251 0)
(0.999031 -0.00229869 0)
(0.99906 0.00118671 0)
(0.999088 -0.0019087 0)
(0.999008 0.00080247 0)
(0.999079 -0.00153799 0)
(0.998923 0.00045286 0)
(0.998987 -0.00117873 0)
(0.998772 0.000149564 0)
(0.99878 -0.000829808 0)
(0.998508 -8.88763e-05 0)
(0.998408 -0.000490543 0)
(0.998061 -0.000222428 0)
(0.997798 -0.000152063 0)
(0.997333 -0.000190858 0)
(0.996849 0.00029516 0)
(0.99622 0.00013625 0)
(0.995517 0.00136887 0)
(0.994834 0.00101026 0)
(0.994306 0.00402855 0)
(0.994742 0.00165369 0)
(0.999518 -0.00452958 0)
(0.998339 0.00356583 0)
(0.99777 -0.00406299 0)
(0.998235 0.00297437 0)
(0.998334 -0.00357125 0)
(0.998526 0.0024204 0)
(0.998577 -0.0030764 0)
(0.998566 0.00194503 0)
(0.998673 -0.00261341 0)
(0.998553 0.00149229 0)
(0.9987 -0.00218323 0)
(0.998519 0.00106583 0)
(0.998674 -0.00178059 0)
(0.99846 0.000671248 0)
(0.9986 -0.00139709 0)
(0.998363 0.000314176 0)
(0.998458 -0.00102681 0)
(0.998195 1.00476e-05 0)
(0.998213 -0.000667027 0)
(0.997912 -0.000221871 0)
(0.997813 -0.000329314 0)
(0.997443 -0.000326998 0)
(0.997187 3.26804e-06 0)
(0.996698 -0.000253628 0)
(0.996236 0.000437392 0)
(0.995589 0.000217903 0)
(0.994932 0.00128312 0)
(0.994288 0.00165156 0)
(0.993791 0.00395431 0)
(0.994715 0.00611464 0)
(0.999854 -0.00444064 0)
(0.998016 0.00347681 0)
(0.997955 -0.00396752 0)
(0.997936 0.00288392 0)
(0.998395 -0.00347714 0)
(0.998246 0.00231811 0)
(0.998546 -0.00297578 0)
(0.998298 0.00183787 0)
(0.99857 -0.0025038 0)
(0.998292 0.00137988 0)
(0.998539 -0.00206702 0)
(0.998258 0.000950305 0)
(0.998468 -0.00166187 0)
(0.998196 0.000558822 0)
(0.998357 -0.00128293 0)
(0.998091 0.000216144 0)
(0.998185 -0.000928467 0)
(0.997915 -5.84558e-05 0)
(0.997917 -0.000601678 0)
(0.99762 -0.000237439 0)
(0.997501 -0.000310748 0)
(0.997141 -0.000261836 0)
(0.996865 -3.0396e-05 0)
(0.996389 -5.13414e-05 0)
(0.995923 0.000272361 0)
(0.995289 0.000633811 0)
(0.99468 0.000998947 0)
(0.994108 0.00244448 0)
(0.993871 0.00364983 0)
(0.994724 0.0103024 0)
(1.00002 -0.00434485 0)
(0.99786 0.00337752 0)
(0.998057 -0.00386038 0)
(0.997795 0.00278374 0)
(0.998437 -0.00337082 0)
(0.998117 0.00220413 0)
(0.998543 -0.00286218 0)
(0.998178 0.00171774 0)
(0.99853 -0.00237936 0)
(0.998176 0.0012527 0)
(0.99847 -0.00193352 0)
(0.998145 0.000817476 0)
(0.998375 -0.00152242 0)
(0.99808 0.000425556 0)
(0.998245 -0.00114326 0)
(0.997972 9.20793e-05 0)
(0.99806 -0.000796154 0)
(0.997789 -0.000163191 0)
(0.997783 -0.000493912 0)
(0.997487 -0.000301788 0)
(0.997365 -0.000227873 0)
(0.996999 -0.000279493 0)
(0.996736 4.77571e-05 0)
(0.996236 -2.54308e-05 0)
(0.995819 0.000471283 0)
(0.995158 0.000639397 0)
(0.99465 0.00149793 0)
(0.994101 0.00237287 0)
(0.994396 0.00399014 0)
(0.995038 0.00644556 0)
(1.00012 -0.00424219 0)
(0.997783 0.00326692 0)
(0.998124 -0.0037411 0)
(0.997725 0.00267334 0)
(0.998475 -0.00325274 0)
(0.998056 0.00207939 0)
(0.99856 -0.00273819 0)
(0.998124 0.00158833 0)
(0.998527 -0.0022466 0)
(0.998126 0.00111958 0)
(0.998451 -0.00179616 0)
(0.998098 0.000684588 0)
(0.998343 -0.00138627 0)
(0.998036 0.000301643 0)
(0.998202 -0.00101741 0)
(0.99793 -1.0053e-05 0)
(0.998008 -0.000689939 0)
(0.997747 -0.00023087 0)
(0.997724 -0.000420257 0)
(0.997445 -0.000318466 0)
(0.997303 -0.000187591 0)
(0.996961 -0.000249954 0)
(0.996675 8.84192e-05 0)
(0.99622 -2.57978e-05 0)
(0.995772 0.000711094 0)
(0.995192 0.000579069 0)
(0.99467 0.00207169 0)
(0.99422 0.00227215 0)
(0.994218 0.00460684 0)
(0.995487 0.00287573 0)
(1.00018 -0.00413221 0)
(0.997738 0.00314358 0)
(0.998176 -0.00360822 0)
(0.997684 0.00255076 0)
(0.998513 -0.0031209 0)
(0.998019 0.00194098 0)
(0.998591 -0.00260069 0)
(0.998089 0.00144512 0)
(0.998551 -0.00210053 0)
(0.998092 0.00097362 0)
(0.998469 -0.00164672 0)
(0.998063 0.000540399 0)
(0.998357 -0.00124075 0)
(0.998 0.000170709 0)
(0.998215 -0.000890203 0)
(0.997892 -0.000111568 0)
(0.998021 -0.000598833 0)
(0.997706 -0.000283076 0)
(0.997742 -0.000373744 0)
(0.9974 -0.000305846 0)
(0.997328 -0.000187707 0)
(0.996917 -0.000161368 0)
(0.996708 5.16454e-05 0)
(0.996197 0.000208106 0)
(0.995833 0.000550828 0)
(0.995226 0.00104041 0)
(0.994817 0.00181786 0)
(0.994365 0.00307484 0)
(0.994402 0.00481908 0)
(0.996144 0.00718476 0)
(1.00021 -0.00401541 0)
(0.997716 0.00300795 0)
(0.998214 -0.00346254 0)
(0.997664 0.00241814 0)
(0.998542 -0.00297822 0)
(0.998001 0.0017941 0)
(0.998615 -0.00245637 0)
(0.998074 0.00129817 0)
(0.99857 -0.00195351 0)
(0.998079 0.000831678 0)
(0.998484 -0.00150514 0)
(0.998053 0.000411135 0)
(0.998369 -0.00111701 0)
(0.997991 7.16481e-05 0)
(0.998225 -0.000805189 0)
(0.997884 -0.000161235 0)
(0.998031 -0.000574043 0)
(0.997699 -0.000262005 0)
(0.997755 -0.00041057 0)
(0.997395 -0.000208665 0)
(0.997348 -0.000276584 0)
(0.996917 1.3184e-05 0)
(0.996745 -0.000106976 0)
(0.996211 0.000572575 0)
(0.995906 0.000302769 0)
(0.995298 0.00164084 0)
(0.994993 0.00145574 0)
(0.994623 0.00392095 0)
(0.994917 0.00490983 0)
(0.996354 0.0117309 0)
(1.00023 -0.00388989 0)
(0.997716 0.00285633 0)
(0.998237 -0.00330009 0)
(0.997665 0.00226994 0)
(0.998557 -0.00281843 0)
(0.998007 0.00163045 0)
(0.998627 -0.00229542 0)
(0.998083 0.00113504 0)
(0.998577 -0.00179034 0)
(0.998091 0.000674936 0)
(0.998488 -0.0013478 0)
(0.998066 0.000268565 0)
(0.998372 -0.000978725 0)
(0.998005 -4.06303e-05 0)
(0.99823 -0.000692865 0)
(0.997896 -0.000232247 0)
(0.998041 -0.000501658 0)
(0.997708 -0.000287089 0)
(0.997772 -0.000360487 0)
(0.997403 -0.000215545 0)
(0.997375 -0.000201538 0)
(0.996926 -1.68112e-05 0)
(0.996799 8.94457e-05 0)
(0.99624 0.000421203 0)
(0.996003 0.000745319 0)
(0.995383 0.00143537 0)
(0.995195 0.00224184 0)
(0.994924 0.00351798 0)
(0.995792 0.00497358 0)
(0.996773 0.00698077 0)
(1.00024 -0.00375701 0)
(0.99773 0.00269107 0)
(0.998254 -0.00312416 0)
(0.99768 0.00210953 0)
(0.998566 -0.00264703 0)
(0.998028 0.00145467 0)
(0.998633 -0.00212596 0)
(0.998109 0.000962198 0)
(0.998578 -0.00162312 0)
(0.998121 0.000513501 0)
(0.998485 -0.00119465 0)
(0.9981 0.000131303 0)
(0.998367 -0.000876947 0)
(0.998041 -0.000135926 0)
(0.998224 -0.000637529 0)
(0.997933 -0.000272132 0)
(0.998036 -0.000484086 0)
(0.997749 -0.000281185 0)
(0.997769 -0.000351922 0)
(0.99745 -0.000196517 0)
(0.997375 -0.000158321 0)
(0.996993 -3.72112e-05 0)
(0.996805 0.00025808 0)
(0.996342 0.000287332 0)
(0.996057 0.00114033 0)
(0.995571 0.00128378 0)
(0.995337 0.00296312 0)
(0.995131 0.00331104 0)
(0.99554 0.00513662 0)
(0.9973 0.00276645 0)
(1.00025 -0.00362168 0)
(0.997747 0.00251996 0)
(0.998273 -0.00294246 0)
(0.997692 0.00195297 0)
(0.998582 -0.00247877 0)
(0.998041 0.00129456 0)
(0.998654 -0.00197365 0)
(0.998121 0.000822511 0)
(0.998601 -0.00149107 0)
(0.99813 0.00040681 0)
(0.99851 -0.00109559 0)
(0.998104 7.453e-05 0)
(0.998398 -0.000793367 0)
(0.998041 -0.000151966 0)
(0.998262 -0.000615026 0)
(0.997929 -0.000233657 0)
(0.998082 -0.000508755 0)
(0.997742 -0.000194856 0)
(0.997822 -0.00040547 0)
(0.997447 -5.96234e-05 0)
(0.997434 -0.000225706 0)
(0.997004 0.000170204 0)
(0.99688 0.00010554 0)
(0.996395 0.000655008 0)
(0.996191 0.000913881 0)
(0.995712 0.00182064 0)
(0.995575 0.00266733 0)
(0.995352 0.00426485 0)
(0.99572 0.00579426 0)
(0.998102 0.00770297 0)
(1.00024 -0.00346001 0)
(0.997785 0.00230411 0)
(0.998274 -0.0027146 0)
(0.997723 0.00173712 0)
(0.99858 -0.00224898 0)
(0.998073 0.00105439 0)
(0.998656 -0.00174172 0)
(0.998153 0.000581259 0)
(0.998604 -0.00125992 0)
(0.998162 0.000176335 0)
(0.998515 -0.000889992 0)
(0.998136 -0.000126694 0)
(0.998404 -0.000628252 0)
(0.998068 -0.000299444 0)
(0.998275 -0.000501685 0)
(0.997954 -0.000317832 0)
(0.998101 -0.000457098 0)
(0.997769 -0.000214563 0)
(0.997847 -0.000431215 0)
(0.99748 1.21955e-05 0)
(0.997468 -0.000354248 0)
(0.997045 0.000439998 0)
(0.99694 -0.000117289 0)
(0.996473 0.00122246 0)
(0.99631 0.0005668 0)
(0.99588 0.00256144 0)
(0.995841 0.00215061 0)
(0.995742 0.00531157 0)
(0.996291 0.0062551 0)
(0.998 0.0129899 0)
(1.0002 -0.00333096 0)
(0.997858 0.00213726 0)
(0.998251 -0.00253861 0)
(0.997789 0.00160441 0)
(0.99855 -0.00210902 0)
(0.998142 0.000940386 0)
(0.998632 -0.00165036 0)
(0.998223 0.000521494 0)
(0.998581 -0.0012263 0)
(0.998228 0.000191221 0)
(0.998497 -0.000939879 0)
(0.998195 -3.45024e-05 0)
(0.998395 -0.000796013 0)
(0.998122 -0.000109865 0)
(0.998275 -0.000731076 0)
(0.998001 -8.21153e-05 0)
(0.998111 -0.000688087 0)
(0.99781 6.06362e-07 0)
(0.99787 -0.000598906 0)
(0.997518 0.000138449 0)
(0.997516 -0.000386359 0)
(0.997094 0.000435116 0)
(0.997028 0.000101155 0)
(0.996557 0.00106176 0)
(0.996451 0.00104983 0)
(0.996042 0.002377 0)
(0.996133 0.00300798 0)
(0.99622 0.00476814 0)
(0.997373 0.00578205 0)
(0.998287 0.00707984 0)
(1.00015 -0.00313236 0)
(0.997947 0.00185962 0)
(0.998225 -0.00225019 0)
(0.99787 0.00132757 0)
(0.99852 -0.00181389 0)
(0.998227 0.000637798 0)
(0.998608 -0.00135312 0)
(0.99831 0.000220026 0)
(0.998559 -0.000918096 0)
(0.998312 -9.49026e-05 0)
(0.998477 -0.000608571 0)
(0.998277 -0.000327621 0)
(0.998379 -0.000419934 0)
(0.998202 -0.000447243 0)
(0.99826 -0.000277225 0)
(0.998084 -0.000517611 0)
(0.998095 -0.00010184 0)
(0.997902 -0.00056236 0)
(0.997853 0.000169418 0)
(0.997628 -0.00057561 0)
(0.997502 0.000560286 0)
(0.997234 -0.000474897 0)
(0.997034 0.00120934 0)
(0.996744 -4.61554e-05 0)
(0.996544 0.00233425 0)
(0.996354 0.00124715 0)
(0.996321 0.00447796 0)
(0.99641 0.00355072 0)
(0.996782 0.0065018 0)
(0.998794 0.00252922 0)
(1.00012 -0.00299976 0)
(0.99802 0.00168005 0)
(0.998225 -0.00206626 0)
(0.997927 0.00119347 0)
(0.99852 -0.0016778 0)
(0.998281 0.000533095 0)
(0.998622 -0.00128948 0)
(0.998361 0.000182335 0)
(0.998582 -0.000957293 0)
(0.998356 -1.91673e-05 0)
(0.998506 -0.000794552 0)
(0.998312 -0.000100952 0)
(0.998417 -0.00076824 0)
(0.998233 -7.01283e-05 0)
(0.998305 -0.000793473 0)
(0.998113 3.74246e-05 0)
(0.998146 -0.000825802 0)
(0.997935 0.000231467 0)
(0.99791 -0.000826726 0)
(0.997663 0.000603696 0)
(0.997573 -0.000748597 0)
(0.997288 0.00114151 0)
(0.99714 -0.000454339 0)
(0.99685 0.0020692 0)
(0.996729 0.000396687 0)
(0.996562 0.00353532 0)
(0.996643 0.00200863 0)
(0.996766 0.00622757 0)
(0.997185 0.00608602 0)
(0.999014 0.013602 0)
(1.00008 -0.00279698 0)
(0.998116 0.00140065 0)
(0.998211 -0.00177886 0)
(0.998009 0.000939547 0)
(0.998499 -0.00140837 0)
(0.998365 0.00028599 0)
(0.998611 -0.00106136 0)
(0.998444 -3.2117e-05 0)
(0.998578 -0.000775166 0)
(0.99843 -0.00018272 0)
(0.998511 -0.000662586 0)
(0.998377 -0.000226434 0)
(0.99843 -0.000631664 0)
(0.998291 -0.000219977 0)
(0.998328 -0.000600953 0)
(0.998165 -0.000209389 0)
(0.998181 -0.000526355 0)
(0.99798 -0.00016894 0)
(0.997973 -0.000390471 0)
(0.99771 -2.79175e-06 0)
(0.997662 -5.1719e-05 0)
(0.997346 0.000429288 0)
(0.997281 0.000511665 0)
(0.996957 0.00121245 0)
(0.99692 0.00157691 0)
(0.996735 0.00266795 0)
(0.997003 0.0034496 0)
(0.997405 0.00482189 0)
(0.998664 0.00580636 0)
(0.999226 0.00720408 0)
(1.00006 -0.00264674 0)
(0.998209 0.00118234 0)
(0.998214 -0.00156328 0)
(0.998088 0.000772225 0)
(0.998492 -0.0012337 0)
(0.998449 0.000151409 0)
(0.998613 -0.000921964 0)
(0.998531 -0.000119267 0)
(0.998583 -0.000670165 0)
(0.998515 -0.000230844 0)
(0.998515 -0.000555584 0)
(0.998463 -0.000290067 0)
(0.998431 -0.000465318 0)
(0.998383 -0.000347008 0)
(0.99832 -0.00028948 0)
(0.998269 -0.00044766 0)
(0.998166 -2.52066e-05 0)
(0.998098 -0.000572022 0)
(0.997951 0.00037808 0)
(0.997858 -0.000702182 0)
(0.997663 0.000955551 0)
(0.997524 -0.000647979 0)
(0.997306 0.00180073 0)
(0.997189 -0.000200008 0)
(0.997057 0.00310606 0)
(0.997093 0.00122622 0)
(0.99717 0.00536994 0)
(0.997431 0.00335781 0)
(0.997796 0.00648442 0)
(0.999749 0.00092462 0)
(1.00009 -0.0024115 0)
(0.998241 0.000863575 0)
(0.998286 -0.00125766 0)
(0.998095 0.000496409 0)
(0.998559 -0.000972009 0)
(0.998455 -9.5949e-05 0)
(0.998694 -0.000749822 0)
(0.998533 -0.000274787 0)
(0.998672 -0.000602609 0)
(0.99851 -0.000260076 0)
(0.998608 -0.000638838 0)
(0.998457 -0.000170486 0)
(0.998526 -0.000758799 0)
(0.998383 -1.77474e-05 0)
(0.998416 -0.000921407 0)
(0.998274 0.000244243 0)
(0.998262 -0.00104961 0)
(0.998118 0.000577059 0)
(0.998046 -0.00108545 0)
(0.997891 0.000985471 0)
(0.997756 -0.000959027 0)
(0.997595 0.00150691 0)
(0.997442 -0.000468024 0)
(0.997328 0.00233486 0)
(0.997291 0.000521451 0)
(0.997364 0.00374179 0)
(0.99757 0.00249696 0)
(0.99781 0.00689329 0)
(0.998098 0.00734729 0)
(0.999876 0.0135416 0)
(1.00009 -0.00231358 0)
(0.998315 0.000729147 0)
(0.998324 -0.0011278 0)
(0.998141 0.000445154 0)
(0.998586 -0.000911954 0)
(0.998499 -0.000115205 0)
(0.998738 -0.000795735 0)
(0.998574 -0.000231462 0)
(0.998727 -0.00069212 0)
(0.99854 -0.000183505 0)
(0.99867 -0.00072442 0)
(0.998477 -0.00010075 0)
(0.998597 -0.000814724 0)
(0.998387 3.67185e-05 0)
(0.998505 -0.000946633 0)
(0.998272 0.000295079 0)
(0.998369 -0.00106594 0)
(0.99811 0.000642623 0)
(0.998176 -0.00113091 0)
(0.997894 0.00112024 0)
(0.997919 -0.00101253 0)
(0.997632 0.0017966 0)
(0.997635 -0.000570394 0)
(0.997415 0.00273432 0)
(0.997532 0.000331314 0)
(0.997583 0.00397531 0)
(0.99812 0.00192426 0)
(0.998763 0.00660496 0)
(0.999784 0.00668976 0)
(0.999304 0.013493 0)
(1.00004 -0.00203698 0)
(0.998456 0.000344794 0)
(0.998318 -0.000730098 0)
(0.99825 0.000108296 0)
(0.998566 -0.00048545 0)
(0.998606 -0.000448549 0)
(0.998734 -0.000381242 0)
(0.998684 -0.000605997 0)
(0.998728 -0.000217898 0)
(0.998646 -0.000676554 0)
(0.998671 -9.00706e-05 0)
(0.998583 -0.000792072 0)
(0.9986 6.6228e-05 0)
(0.9985 -0.000919119 0)
(0.998512 0.000293752 0)
(0.998384 -0.00105029 0)
(0.998382 0.000563477 0)
(0.998226 -0.00110497 0)
(0.998201 0.00089812 0)
(0.99802 -0.00100653 0)
(0.997966 0.00133189 0)
(0.99778 -0.000654747 0)
(0.997732 0.00198257 0)
(0.997614 0.000114694 0)
(0.997686 0.00305181 0)
(0.997833 0.0012252 0)
(0.998375 0.00410459 0)
(0.999188 0.0016711 0)
(1.00025 0.0034908 0)
(0.999795 0.000112006 0)
(1.00001 -0.00190474 0)
(0.998586 0.000162921 0)
(0.998345 -0.000704922 0)
(0.998342 9.84103e-05 0)
(0.99858 -0.000655094 0)
(0.998691 -0.000304754 0)
(0.998764 -0.000665258 0)
(0.998772 -0.000358516 0)
(0.998761 -0.000560729 0)
(0.998734 -0.000367267 0)
(0.9987 -0.000466627 0)
(0.998674 -0.000440227 0)
(0.998625 -0.000343103 0)
(0.998595 -0.000542128 0)
(0.998532 -0.000170568 0)
(0.998491 -0.000665906 0)
(0.998406 9.63269e-05 0)
(0.998345 -0.000697794 0)
(0.998239 0.000454227 0)
(0.998156 -0.000556908 0)
(0.998036 0.000949296 0)
(0.997948 -0.000111311 0)
(0.997853 0.00169138 0)
(0.997841 0.000738437 0)
(0.997857 0.00273892 0)
(0.998027 0.0018439 0)
(0.998284 0.00345847 0)
(0.998729 0.00155029 0)
(0.999327 0.00188055 0)
(1.00153 0.000166468 0)
(1.00003 -0.00174901 0)
(0.998664 -4.96052e-05 0)
(0.998426 -0.000514089 0)
(0.998376 -3.08422e-05 0)
(0.998648 -0.000265014 0)
(0.998727 -0.000532973 0)
(0.998848 -0.000351546 0)
(0.998814 -0.000614322 0)
(0.998847 -0.000277036 0)
(0.998776 -0.00060919 0)
(0.998783 -0.000219335 0)
(0.998718 -0.000600919 0)
(0.998707 -0.000176246 0)
(0.998643 -0.000565193 0)
(0.998613 -0.000130176 0)
(0.998548 -0.00049531 0)
(0.998492 -6.50199e-05 0)
(0.998414 -0.00035537 0)
(0.998339 0.000104203 0)
(0.998246 -6.08566e-05 0)
(0.998166 0.000485945 0)
(0.998075 0.000484567 0)
(0.998033 0.00117281 0)
(0.998004 0.00130816 0)
(0.998071 0.00205462 0)
(0.998164 0.00238719 0)
(0.998387 0.00320104 0)
(0.998863 0.00385362 0)
(0.999993 0.00490199 0)
(1.00376 0.00611245 0)
(1.00003 -0.00144776 0)
(0.998785 -0.000377216 0)
(0.998493 -0.000310388 0)
(0.998471 -0.000163619 0)
(0.998681 -0.000274999 0)
(0.998791 -0.000430113 0)
(0.998902 -0.000512445 0)
(0.998889 -0.000393323 0)
(0.998907 -0.000610032 0)
(0.99885 -0.000227173 0)
(0.998846 -0.000725687 0)
(0.99879 -2.1971e-05 0)
(0.998773 -0.000880082 0)
(0.998714 0.00020821 0)
(0.998685 -0.00102841 0)
(0.998614 0.000489417 0)
(0.998571 -0.00109148 0)
(0.998491 0.00079088 0)
(0.998435 -0.000963203 0)
(0.998351 0.00119533 0)
(0.99829 -0.000549544 0)
(0.998225 0.00178437 0)
(0.998184 0.000162025 0)
(0.99819 0.00249421 0)
(0.998277 0.00100535 0)
(0.998484 0.00350586 0)
(0.998861 0.00250056 0)
(0.999408 0.00636832 0)
(1.0002 0.00741976 0)
(1.00285 0.012445 0)
(1.00001 -0.00156945 0)
(0.998905 -0.000263286 0)
(0.99856 -0.000583044 0)
(0.998529 0.000126452 0)
(0.998741 -0.00046718 0)
(0.998854 -0.000215916 0)
(0.998971 -0.000661136 0)
(0.998951 -0.000298899 0)
(0.99899 -0.000674337 0)
(0.998905 -0.000255934 0)
(0.998937 -0.000665409 0)
(0.998836 -0.000203105 0)
(0.998872 -0.000670784 0)
(0.998755 -0.00015945 0)
(0.998796 -0.000663487 0)
(0.998666 -8.54756e-05 0)
(0.99869 -0.000544006 0)
(0.998563 0.000105739 0)
(0.998569 -0.000235325 0)
(0.998455 0.000489229 0)
(0.998452 0.000303717 0)
(0.998362 0.00110349 0)
(0.998366 0.00105743 0)
(0.998344 0.00193529 0)
(0.998513 0.00202959 0)
(0.998723 0.00293686 0)
(0.999461 0.00309374 0)
(1.00063 0.00383618 0)
(1.00226 0.0039466 0)
(1.00291 0.00509793 0)
(0.999973 -0.000940183 0)
(0.99907 -0.00094363 0)
(0.998618 -1.07319e-05 0)
(0.998684 -0.000469688 0)
(0.99874 0.000254789 0)
(0.998971 -0.00088188 0)
(0.998987 0.000106363 0)
(0.999083 -0.00110938 0)
(0.999009 0.00021435 0)
(0.999044 -0.00119383 0)
(0.998953 0.000392969 0)
(0.998978 -0.00127246 0)
(0.998884 0.000568687 0)
(0.998899 -0.00133986 0)
(0.998806 0.000751863 0)
(0.998815 -0.00135898 0)
(0.99872 0.000951868 0)
(0.998728 -0.00123213 0)
(0.998634 0.00121599 0)
(0.998642 -0.000883417 0)
(0.998557 0.00168883 0)
(0.998579 -0.000231132 0)
(0.998532 0.00244254 0)
(0.998623 0.000811271 0)
(0.998705 0.00351402 0)
(0.998969 0.00184013 0)
(0.999276 0.0041329 0)
(0.999804 0.00132043 0)
(1.00073 0.00210766 0)
(1.00408 -0.000456463 0)
(1.00001 -0.00147215 0)
(0.999133 -0.000247154 0)
(0.998757 -0.000855075 0)
(0.998702 0.000480307 0)
(0.998851 -0.000875369 0)
(0.998988 0.000352632 0)
(0.999096 -0.00114852 0)
(0.999116 0.000233823 0)
(0.999126 -0.0011931 0)
(0.999085 0.000243871 0)
(0.99907 -0.00112824 0)
(0.999022 0.000292199 0)
(0.999001 -0.00103717 0)
(0.998949 0.00036399 0)
(0.998929 -0.000930554 0)
(0.998871 0.000461547 0)
(0.998847 -0.000770798 0)
(0.99879 0.000625633 0)
(0.998775 -0.000479771 0)
(0.99874 0.000965739 0)
(0.998738 3.61427e-05 0)
(0.998737 0.00157742 0)
(0.998778 0.000878589 0)
(0.998837 0.00254154 0)
(0.998949 0.0020229 0)
(0.999104 0.00362475 0)
(0.999394 0.00302491 0)
(1.0001 0.00442312 0)
(1.00182 0.00447 0)
(1.00623 0.00768806 0)
(1.00002 -0.000557531 0)
(0.999234 -0.00133156 0)
(0.998881 -4.46806e-06 0)
(0.998791 -0.000575604 0)
(0.99892 0.000455167 0)
(0.999049 -0.000848047 0)
(0.999167 0.000283574 0)
(0.999188 -0.00106294 0)
(0.999203 0.000227717 0)
(0.999165 -0.00111457 0)
(0.999152 0.000281898 0)
(0.999106 -0.00105698 0)
(0.999087 0.000363043 0)
(0.999033 -0.00095707 0)
(0.999013 0.000436798 0)
(0.998962 -0.000832899 0)
(0.998943 0.000544366 0)
(0.998909 -0.000617844 0)
(0.998901 0.000822656 0)
(0.998888 -0.000209396 0)
(0.998903 0.00130461 0)
(0.998931 0.000474115 0)
(0.998998 0.0020558 0)
(0.999096 0.00143275 0)
(0.999241 0.0031419 0)
(0.999437 0.00293775 0)
(0.999753 0.00504291 0)
(1.00049 0.00527413 0)
(1.00224 0.00680846 0)
(1.00672 0.00522259 0)
(1.00001 -0.00114342 0)
(0.999342 -0.00022078 0)
(0.999007 -0.00114192 0)
(0.998905 0.000574274 0)
(0.998991 -0.00101322 0)
(0.999124 0.000731013 0)
(0.999236 -0.00143985 0)
(0.999266 0.000627965 0)
(0.999284 -0.00168289 0)
(0.999251 0.00068532 0)
(0.99924 -0.00167072 0)
(0.999195 0.000803346 0)
(0.999178 -0.00154876 0)
(0.999125 0.00090351 0)
(0.999109 -0.00134548 0)
(0.999057 0.00101772 0)
(0.999047 -0.00107528 0)
(0.99902 0.00118634 0)
(0.999025 -0.00071933 0)
(0.999033 0.00146973 0)
(0.999073 -0.000185044 0)
(0.999124 0.00206439 0)
(0.999215 0.000652304 0)
(0.99936 0.00294178 0)
(0.999608 0.00172795 0)
(0.999968 0.0042836 0)
(1.00043 0.00400258 0)
(1.00098 0.00821644 0)
(1.00189 0.00962441 0)
(1.00518 0.0137441 0)
(0.999944 -0.000623634 0)
(0.999431 -0.00103743 0)
(0.999037 -0.000382787 0)
(0.998991 -0.00033298 0)
(0.999023 -5.93476e-06 0)
(0.999175 -0.000286132 0)
(0.99925 -0.00026538 0)
(0.999324 -0.000538958 0)
(0.999319 -0.000471071 0)
(0.999329 -0.000550947 0)
(0.999288 -0.000425553 0)
(0.999283 -0.000448839 0)
(0.999229 -0.000313214 0)
(0.999222 -0.000330288 0)
(0.999167 -0.000144918 0)
(0.999167 -0.000164997 0)
(0.999117 0.000116208 0)
(0.999138 9.78593e-05 0)
(0.999113 0.000456324 0)
(0.999171 0.000496325 0)
(0.999218 0.000949333 0)
(0.99932 0.00112098 0)
(0.999426 0.00176831 0)
(0.99959 0.00219265 0)
(0.999873 0.00297321 0)
(1.00043 0.003303 0)
(1.00149 0.00383549 0)
(1.00299 0.0039031 0)
(1.0048 0.00422361 0)
(1.0045 0.00365198 0)
(0.99986 -0.000528535 0)
(0.99969 -0.000894348 0)
(0.999104 -0.000512151 0)
(0.999257 -0.000269285 0)
(0.999025 -0.000112236 0)
(0.999387 -0.000237838 0)
(0.999239 -0.000298858 0)
(0.999522 -0.000450567 0)
(0.999329 -0.00041253 0)
(0.999533 -0.000506311 0)
(0.999313 -0.000320043 0)
(0.99948 -0.000453748 0)
(0.999264 -0.000165047 0)
(0.999414 -0.000345246 0)
(0.999216 2.02232e-05 0)
(0.999363 -0.000178842 0)
(0.999189 0.000243952 0)
(0.999346 9.05652e-05 0)
(0.999217 0.00055154 0)
(0.999405 0.000551947 0)
(0.999352 0.00102449 0)
(0.99961 0.00109109 0)
(0.999674 0.00161198 0)
(1.00001 0.00177054 0)
(1.00012 0.00239152 0)
(1.0005 0.00275555 0)
(1.00074 0.0037515 0)
(1.00124 0.00437933 0)
(1.00168 0.00545339 0)
(1.00473 0.00596175 0)
(0.999929 -0.000883665 0)
(0.999592 -0.000379271 0)
(0.99924 -0.000935297 0)
(0.999195 0.000132401 0)
(0.999162 -0.000592939 0)
(0.999304 0.00025075 0)
(0.999356 -0.000785526 0)
(0.999462 4.03727e-06 0)
(0.999448 -0.00096767 0)
(0.999499 -5.94416e-05 0)
(0.999436 -0.000900147 0)
(0.999467 3.24903e-05 0)
(0.999389 -0.000733134 0)
(0.999417 0.000195799 0)
(0.999343 -0.00051209 0)
(0.999375 0.000418042 0)
(0.999323 -0.000224391 0)