/*--------------------------------*- C++ -*----------------------------------*\
| =========                 |                                                 |
| \\      /  F ield         | OpenFOAM: The Open Source CFD Toolbox           |
|  \\    /   O peration     | Version:  v2006                                 |
|   \\  /    A nd           | Website:  www.openfoam.com                      |
|    \\/     M anipulation  |                                                 |
\*---------------------------------------------------------------------------*/
FoamFile
{
    version     2.0;
    format      ascii;
    class       volScalarField;
    location    "1.5";
    object      p;
}
// * * * * * * * * * * * * * * * * * * * * * * * * * * * * * * * * * * * * * //

dimensions      [0 2 -2 0 0 0 0];


internalField   nonuniform List<scalar> 
26400
(
-1.86913e-09
0.00221669
0.00207843
0.00229395
0.00172659
0.00201097
0.00164022
0.00196687
0.0016685
0.00197809
0.0017279
0.00203684
0.00181892
0.00211973
0.00194399
0.00225249
0.00212441
0.00245973
0.00239828
0.00279251
0.00282731
0.00332088
0.00349733
0.00415093
0.00455013
0.00547865
0.00628156
0.00784834
0.0095902
0.0122239
3.57195e-07
0.00221675
0.00207889
0.002294
0.00172726
0.00201097
0.001641
0.00196682
0.0016694
0.00197798
0.00172895
0.00203662
0.00182016
0.00211932
0.00194549
0.00225179
0.00212626
0.0024585
0.00240061
0.00279026
0.00283039
0.00331629
0.00350182
0.00414001
0.00455852
0.00544502
0.00630126
0.00770538
0.00957915
0.0115367
1.36825e-06
0.00221701
0.00207979
0.00229418
0.00172852
0.0020109
0.0016425
0.00196661
0.00167115
0.00197762
0.001731
0.00203604
0.00182257
0.00211841
0.00194834
0.00225036
0.00212963
0.00245628
0.0024046
0.00278677
0.00283503
0.00331053
0.00350711
0.00413006
0.00456498
0.00542664
0.00629711
0.00762673
0.00946321
0.0108775
3.53068e-06
0.00221784
0.00208104
0.0022947
0.00173014
0.00201097
0.0016444
0.00196647
0.00167339
0.00197728
0.00173358
0.00203539
0.00182554
0.0021173
0.00195174
0.00224858
0.00213356
0.00245345
0.00240917
0.00278224
0.00284031
0.00330318
0.00351285
0.00411727
0.00457054
0.00539648
0.00629776
0.00750416
0.00923777
0.0103247
7.33735e-06
0.00221911
0.00208261
0.00229542
0.00173209
0.00201106
0.00164661
0.00196627
0.00167595
0.00197677
0.00173648
0.00203447
0.00182881
0.00211575
0.00195544
0.00224615
0.00213777
0.0024497
0.00241401
0.00277645
0.00284576
0.00329421
0.00351843
0.00410196
0.00457341
0.00536869
0.0062658
0.00741352
0.00888953
0.00987659
1.29618e-05
0.00222047
0.00208448
0.00229605
0.00173428
0.0020109
0.00164901
0.00196573
0.0016787
0.00197584
0.0017396
0.002033
0.00183231
0.0021135
0.00195942
0.00224286
0.00214231
0.00244489
0.0024192
0.00276944
0.00285131
0.00328413
0.00352361
0.00408941
0.00457209
0.00535579
0.00619915
0.0073374
0.00850744
0.00932546
2.02425e-05
0.00222164
0.00208661
0.00229637
0.00173665
0.00201029
0.00165153
0.0019647
0.00168162
0.00197435
0.00174294
0.00203089
0.00183611
0.00211051
0.00196382
0.00223864
0.00214742
0.00243893
0.00242503
0.00276109
0.0028573
0.00327226
0.00352891
0.00407258
0.00457052
0.00531359
0.0061732
0.00716693
0.00834796
0.0089131
2.88424e-05
0.00222251
0.00208896
0.0022963
0.00173922
0.00200917
0.00165421
0.00196314
0.00168476
0.00197231
0.0017466
0.00202818
0.00184035
0.00210679
0.0019688
0.00223353
0.00215321
0.00243189
0.00243151
0.00275155
0.00286363
0.00325837
0.00353337
0.00405491
0.00456731
0.00527665
0.00611944
0.00700347
0.00802637
0.00846945
3.84202e-05
0.0022231
0.00209155
0.00229586
0.00174205
0.00200757
0.00165712
0.00196107
0.00168824
0.00196974
0.00175072
0.00202487
0.00184516
0.00210236
0.00197443
0.00222757
0.00215965
0.00242395
0.0024384
0.00274142
0.00287
0.00324593
0.00353507
0.00403995
0.00454703
0.00527478
0.00599807
0.00690391
0.00738512
0.00797983
4.87298e-05
0.00222345
0.00209442
0.00229514
0.00174524
0.00200552
0.00166037
0.00195851
0.00169219
0.00196661
0.00175543
0.00202089
0.00185068
0.0020971
0.00198088
0.0022206
0.00216689
0.00241483
0.00244586
0.00272903
0.00287696
0.00323066
0.00353713
0.00401925
0.00453751
0.00523131
0.00592683
0.0067737
0.00706677
0.00743465
5.96419e-05
0.00222364
0.00209761
0.0022942
0.00174889
0.00200306
0.00166404
0.00195543
0.00169668
0.00196287
0.00176081
0.00201619
0.00185695
0.00209097
0.0019881
0.00221266
0.00217474
0.00240475
0.00245357
0.0027164
0.0028832
0.0032149
0.00353796
0.00399531
0.00452624
0.00516085
0.00589527
0.00660845
0.00715057
0.0068137
7.11229e-05
0.00222366
0.00210117
0.00229304
0.00175308
0.00200015
0.00166822
0.00195177
0.0017018
0.00195844
0.00176693
0.00201068
0.00186402
0.00208391
0.00199609
0.00220376
0.00218312
0.00239372
0.00246137
0.0027035
0.0028879
0.00319937
0.00353575
0.00397118
0.00450569
0.00510551
0.00582755
0.00643534
0.00699215
0.00607414
8.32032e-05
0.00222347
0.00210513
0.00229168
0.00175791
0.00199676
0.00167294
0.00194746
0.0017076
0.00195326
0.00177384
0.00200432
0.0018719
0.00207596
0.00200472
0.00219402
0.00219177
0.00238198
0.00246872
0.00269057
0.00289054
0.00318434
0.00352985
0.0039502
0.00447306
0.00506141
0.00571808
0.00625356
0.00653219
0.00565929
9.59566e-05
0.00222299
0.00210951
0.00229007
0.00176345
0.00199283
0.00167828
0.00194242
0.00171414
0.00194727
0.00178155
0.0019971
0.0018805
0.00206721
0.00201381
0.00218379
0.00220029
0.0023707
0.00247467
0.0026785
0.00289022
0.00317016
0.00351467
0.00393489
0.00442944
0.00501213
0.0055969
0.00606448
0.00584711
0.00507312
0.000109491
0.00222206
0.00211436
0.00228816
0.00176982
0.00198829
0.00168431
0.00193657
0.00172147
0.0019404
0.0017901
0.00198899
0.00188981
0.00205768
0.00202321
0.00217303
0.0022086
0.00235953
0.00247922
0.00266683
0.00288815
0.003155
0.00350299
0.00389934
0.00439319
0.00492568
0.00548249
0.00589481
0.0059247
0.00467056
0.000123943
0.00222054
0.00211971
0.00228592
0.00177713
0.00198309
0.00169107
0.00192983
0.00172962
0.0019326
0.00179945
0.00198003
0.00189967
0.00204756
0.00203257
0.00216213
0.00221598
0.00234905
0.00248166
0.00265625
0.0028832
0.0031399
0.00348966
0.00385899
0.00435112
0.00482699
0.0053532
0.00568252
0.0057547
0.00393565
0.000139473
0.0022182
0.00212558
0.00228329
0.00178546
0.00197718
0.00169859
0.00192216
0.00173854
0.00192397
0.00180944
0.00197047
0.00190966
0.00203764
0.00204116
0.00215272
0.00222105
0.00234079
0.00248015
0.00264869
0.00287172
0.00312898
0.00345683
0.00383568
0.0042804
0.00474617
0.00517731
0.00541662
0.00523457
0.0036902
0.000156283
0.0022148
0.00213202
0.0022802
0.00179492
0.0019705
0.00170689
0.00191355
0.00174817
0.00191454
0.00181997
0.00196049
0.0019194
0.00202821
0.00204867
0.00214486
0.00222373
0.00233444
0.0024758
0.00264225
0.00285778
0.00311917
0.00342047
0.00380318
0.0042008
0.00465508
0.00499545
0.00510843
0.00437417
0.0031854
0.000174599
0.00221006
0.00213904
0.00227663
0.0018056
0.00196302
0.00171595
0.00190396
0.00175844
0.00190427
0.00183089
0.0019503
0.00192856
0.00201852
0.00205475
0.0021378
0.00222472
0.00232776
0.00247155
0.00263164
0.00284743
0.00309334
0.00339839
0.00374347
0.00412927
0.00451379
0.00483201
0.00495159
0.00461833
0.00284042
0.000194609
0.00220369
0.0021466
0.00227257
0.00181751
0.00195484
0.00172561
0.00189368
0.00176897
0.00189394
0.00184127
0.00194285
0.00193699
0.00201175
0.00205871
0.00213266
0.0022234
0.00232214
0.00246511
0.0026208
0.00283725
0.00306669
0.00337321
0.00367437
0.00404568
0.00435688
0.00464535
0.00471402
0.00448631
0.0020094
0.000216778
0.00219526
0.0021548
0.00226789
0.00183085
0.00194579
0.00173599
0.00188238
0.00177989
0.00188285
0.00185112
0.00192999
0.00194517
0.00200463
0.00206128
0.00212833
0.00221978
0.00231766
0.00245407
0.00261084
0.00281445
0.00304972
0.00332513
0.00362225
0.00393804
0.00421503
0.00438902
0.00435028
0.00391604
0.00209712
0.0002411
0.0021845
0.00216344
0.0022628
0.00184541
0.0019364
0.00174647
0.00187119
0.00179012
0.00187402
0.00185935
0.00192673
0.00194801
0.00200396
0.00205727
0.00213146
0.00220905
0.00232254
0.00243484
0.00261431
0.00277425
0.00303571
0.00324949
0.00356791
0.00381314
0.00407869
0.00411882
0.00389646
0.00284513
0.00174307
0.000268281
0.00217085
0.00217261
0.00225713
0.00186139
0.00192646
0.00175717
0.00185943
0.0017999
0.00186461
0.0018679
0.00191959
0.00195221
0.0019983
0.00205997
0.0021229
0.00221215
0.00230595
0.0024392
0.00258167
0.00277473
0.00297382
0.00322601
0.0034607
0.00370232
0.00384796
0.00391059
0.00378778
0.00344508
0.00147675
0.000298543
0.00215395
0.00218213
0.00225095
0.00187869
0.00191618
0.00176779
0.001847
0.00180825
0.00185454
0.00187437
0.00191398
0.00195508
0.0019933
0.00206061
0.00211601
0.00220928
0.00229292
0.00243016
0.00256485
0.00275301
0.00293818
0.00317445
0.00337231
0.00357117
0.0036563
0.00364352
0.00344654
0.00308456
0.00121021
0.000331966
0.00213359
0.00219164
0.00224473
0.00189676
0.00190716
0.00177742
0.00183893
0.00181287
0.00185398
0.00187341
0.00191926
0.00194822
0.0020023
0.00204719
0.00212811
0.00218726
0.00230809
0.00238538
0.00257021
0.0026867
0.00292497
0.00305892
0.00330643
0.00341151
0.00352152
0.0033196
0.00284553
0.0016196
0.000924843
0.000369245
0.00210922
0.00220109
0.00223825
0.0019157
0.00189829
0.00178692
0.00182897
0.00181763
0.00184803
0.00187635
0.00191368
0.00195304
0.00199201
0.00205886
0.00210874
0.00220446
0.00227563
0.002407
0.00251375
0.00268442
0.00283843
0.0030296
0.00316654
0.00326873
0.00325586
0.00314595
0.00291217
0.00252676
0.000667399
0.000411084
0.00208036
0.00221032
0.00223148
0.00193524
0.00188835
0.00179528
0.00182078
0.00182017
0.00184576
0.00187663
0.00191246
0.00195138
0.00198445
0.00205562
0.00209728
0.00219934
0.00225214
0.00240019
0.00247857
0.00267728
0.00277081
0.00297751
0.00303399
0.00311632
0.00299444
0.00282592
0.00254091
0.00227525
0.000482167
0.000456423
0.00204818
0.0022182
0.00222674
0.00195416
0.00188538
0.00179814
0.00181914
0.00181362
0.00185463
0.00186459
0.00193055
0.00193229
0.00201654
0.00202038
0.00213314
0.00214867
0.00229032
0.00232965
0.00250114
0.00257498
0.00275533
0.00284629
0.00296596
0.00293687
0.00279618
0.00233883
0.00160959
0.000622134
0.00099261
0.000506581
0.00201089
0.00222545
0.00222107
0.00197632
0.00188034
0.00180501
0.00181155
0.00181619
0.00184918
0.0018687
0.001923
0.00193573
0.0020016
0.00202118
0.00211721
0.00214519
0.00226875
0.00231458
0.00246888
0.00254135
0.0026992
0.00276371
0.00285681
0.00280125
0.00263299
0.00210682
0.00127439
0.000202159
0.000644034
0.000562954
0.00196626
0.00223002
0.00221345
0.00199522
0.00187853
0.00181003
0.00180475
0.00181939
0.00184193
0.00187713
0.00191177
0.00194954
0.00198382
0.00204179
0.00208869
0.00216165
0.00222729
0.00231877
0.00240962
0.00251436
0.00260632
0.00268522
0.0027024
0.00267404
0.00251071
0.00224487
0.00181511
0.00122135
-0.000917108
0.0006224
0.00193089
0.00222729
0.0022207
0.00201067
0.00188134
0.00181109
0.00180028
0.00181867
0.0018377
0.00187963
0.00190582
0.00195315
0.00197397
0.00204545
0.00207123
0.00215907
0.00219881
0.0023008
0.00236061
0.00246387
0.00252132
0.00258368
0.0025819
0.00253715
0.00241759
0.00221875
0.00172461
0.000627119
-0.00312026
0.00068978
0.00187685
0.00222697
0.00219258
0.00203848
0.00188669
0.00181736
0.00179713
0.00181839
0.00183615
0.00187555
0.00190693
0.00194415
0.00197772
0.00203027
0.00207945
0.00213701
0.00219794
0.00226238
0.00233143
0.00239758
0.00244628
0.00248832
0.00247172
0.0023864
0.00217469
0.00179828
0.00124766
0.000450271
-0.00215777
0.000755347
0.00184531
0.0022066
0.00222249
0.00203438
0.00190522
0.00180639
0.00181189
0.00179804
0.00185438
0.00185059
0.00193082
0.00191515
0.00200251
0.00199296
0.00209144
0.00209366
0.00218626
0.00220461
0.00228495
0.00231229
0.00236593
0.00238337
0.00237357
0.00222871
0.00199191
0.00128096
8.38684e-05
-0.00156847
-0.00230673
0.000834502
0.00179471
0.00219403
0.00218041
0.00207432
0.00190438
0.0018285
0.00179645
0.00181567
0.00183381
0.00187068
0.00190683
0.00193935
0.0019759
0.00201941
0.00206188
0.00210219
0.00214023
0.00217947
0.0022128
0.00224573
0.00225984
0.00225744
0.00220242
0.00207938
0.00185227
0.00151068
0.0010276
8.58834e-05
-0.00315803
0.000905589
0.00176773
0.00216133
0.00220122
0.00207423
0.00192254
0.00183107
0.0017988
0.00180971
0.00182945
0.00186458
0.00190038
0.00193196
0.00196456
0.00200524
0.00204483
0.00208067
0.00211784
0.0021432
0.00215872
0.00216779
0.00214469
0.00211198
0.00203305
0.00193388
0.00176472
0.0014926
0.000776041
-0.000913451
-0.00529238
0.00098498
0.00173612
0.00212448
0.00218363
0.00209
0.00193497
0.00184318
0.00180239
0.00181459
0.0018263
0.00186284
0.00189478
0.00192665
0.00196011
0.00199966
0.00203758
0.0020651
0.00208009
0.00209461
0.002089
0.0020772
0.00203128
0.00196681
0.00185586
0.00171767
0.00151359
0.00120451
0.000465127
-0.00126591
-0.00569595
0.00107302
0.00171657
0.00208344
0.00215448
0.00210199
0.00194453
0.00185622
0.00180727
0.00181536
0.00182076
0.00185534
0.00188594
0.00191796
0.00194898
0.00198546
0.00201931
0.00203904
0.00204977
0.00205071
0.00202113
0.00198597
0.00191577
0.00182795
0.00167018
0.0014302
0.00106126
0.000605981
4.2528e-05
-0.000870294
-0.00412337
0.00111355
0.00173572
0.00203821
0.00217427
0.00206739
0.00199465
0.00185086
0.00184522
0.00179588
0.00183532
0.00183056
0.00188776
0.00189674
0.00193984
0.00196169
0.00199336
0.00200653
0.00200937
0.00200119
0.00196011
0.00188404
0.00179759
0.00166221
0.0015144
0.00121253
0.000677495
-0.000405905
-0.00190202
-0.00379068
-0.00351798
0.0012394
0.0016879
0.00200631
0.00210952
0.00209615
0.00197936
0.0018914
0.00183861
0.0018166
0.00181576
0.00183583
0.00186942
0.00189558
0.00192388
0.0019529
0.00196681
0.00197571
0.00195949
0.00193826
0.00187784
0.00179466
0.00165568
0.00146707
0.00124167
0.00101204
0.000734985
0.000402818
5.63458e-06
-0.000516661
-0.00341416
0.00125777
0.00173485
0.00196456
0.0021293
0.00206175
0.00202354
0.00187996
0.00186483
0.00180293
0.00182055
0.00181916
0.00185818
0.00187643
0.00190011
0.0019273
0.00194028
0.00194369
0.00192238
0.00186995
0.00181332
0.00171194
0.00159878
0.00143086
0.00123041
0.000833403
9.37249e-05
-0.00116489
-0.00279794
-0.00471936
-0.00411523
0.00138045
0.00168931
0.00194301
0.00206564
0.00208157
0.00200786
0.00193018
0.00186937
0.00182793
0.0018058
0.00181574
0.00183765
0.00186082
0.00187858
0.00189854
0.00190181
0.00189075
0.00185702
0.00181179
0.00174172
0.00164504
0.00151157
0.00132687
0.00106949
0.000753766
0.00041534
8.28388e-05
-0.000363715
-0.00159478
-0.00563813
0.00144968
0.00169019
0.00192466
0.00204259
0.002076
0.00201071
0.00194361
0.00186839
0.00183139
0.00180192
0.0018035
0.00182029
0.00183788
0.00186045
0.00187189
0.00186937
0.0018525
0.00180596
0.00176108
0.00167477
0.00157284
0.00141668
0.00123397
0.00100049
0.000734623
0.000357043
-0.000241852
-0.00138635
-0.00362489
-0.00865152
0.00147558
0.00173325
0.00191022
0.00201597
0.00204902
0.00201772
0.00195608
0.00189356
0.00184719
0.00181462
0.00179899
0.00180075
0.00181209
0.00181492
0.00182569
0.00182243
0.00180267
0.00175908
0.00170318
0.00161359
0.00149495
0.00132695
0.00112038
0.000860979
0.000546477
0.000109055
-0.000581233
-0.00180626
-0.00414355
-0.0091684
0.00161528
0.00169132
0.00189448
0.00198596
0.00203637
0.00199912
0.00195293
0.00189371
0.00184895
0.00181196
0.00178981
0.00179252
0.00178938
0.00179089
0.00179692
0.00178088
0.00176295
0.00170703
0.00164781
0.00154807
0.0014264
0.00124023
0.000992074
0.000629967
0.000176865
-0.000355872
-0.000929287
-0.00170901
-0.00325309
-0.00788684
0.00155371
0.00183332
0.00186911
0.00200263
0.00197838
0.00202603
0.00192221
0.00192444
0.00183559
0.00182867
0.00176935
0.00176865
0.00175047
0.00174686
0.00174969
0.00174137
0.00172683
0.00167351
0.00158564
0.00149695
0.00134577
0.00117887
0.000894996
0.000506972
-0.000219754
-0.00133117
-0.00286663
-0.00472326
-0.00679582
-0.00586941
0.00172123
0.00177318
0.00187665
0.00194141
0.0019761
0.00198238
0.00195669
0.00191127
0.00187373
0.00182898
0.0017743
0.00173535
0.00171359
0.00169533
0.00169251
0.00167988
0.0016568
0.0016016
0.00152942
0.00142732
0.0012877
0.00109091
0.000821772
0.000466196
4.36166e-05
-0.000432169
-0.00101516
-0.00196417
-0.00403322
-0.00927096
0.0017312
0.00179235
0.00189752
0.00194725
0.00197436
0.00196328
0.00193905
0.00189876
0.00185515
0.0018087
0.00175968
0.00173366
0.00169541
0.00166253
0.00164563
0.0016171
0.00159796
0.00153911
0.0014751
0.0013651
0.00123246
0.00103804
0.000805863
0.000488879
7.31106e-05
-0.000598655
-0.00166339
-0.00346667
-0.00653317
-0.012396
0.001757
0.00187167
0.00191368
0.00193587
0.00194513
0.00193413
0.00191824
0.00189065
0.00186356
0.00180972
0.00175666
0.00170038
0.00164448
0.00160987
0.00158193
0.00156965
0.00153707
0.00148842
0.00141028
0.0013105
0.00117035
0.000990217
0.00074901
0.000427341
-4.29143e-05
-0.000738624
-0.0018162
-0.00356374
-0.00667798
-0.0126983
0.00184708
0.00188071
0.00191138
0.00191949
0.00191972
0.00191378
0.00189353
0.00187674
0.00185168
0.00180597
0.00173283
0.00166142
0.00160722
0.001565
0.00154098
0.00151919
0.00148555
0.00142795
0.00134865
0.00124431
0.00110558
0.000920187
0.00067208
0.000330896
-0.000155505
-0.000876345
-0.00200081
-0.0038774
-0.00723002
-0.013571
0.00185877
0.00191663
0.00194438
0.00193829
0.00191685
0.00189168
0.00186705
0.00184414
0.00181532
0.00176866
0.00170697
0.00164482
0.0015868
0.00153761
0.00149939
0.00146838
0.00142676
0.00136443
0.00128003
0.00117211
0.00102974
0.000838145
0.000578113
0.000220703
-0.000288487
-0.0010505
-0.00225881
-0.00427097
-0.00778585
-0.0142738
0.00191418
0.00195912
0.00196436
0.0019398
0.00190384
0.00186721
0.00183301
0.00180351
0.00177183
0.00173013
0.00167757
0.00162212
0.00156442
0.00150764
0.0014578
0.00141557
0.0013657
0.00129732
0.00120691
0.00109322
0.000944646
0.000744759
0.00047196
9.49457e-05
-0.000446583
-0.00126178
-0.0025461
-0.00465108
-0.00826065
-0.0147989
0.00195678
0.00198776
0.0019793
0.00194376
0.00189577
0.00184771
0.00180387
0.0017678
0.00173325
0.00169253
0.00164396
0.00159249
0.00153582
0.0014748
0.00141628
0.00136297
0.00130392
0.00122788
0.00113016
0.00100868
0.000851856
0.000641577
0.000353665
-4.69579e-05
-0.000623185
-0.00148502
-0.00282535
-0.00499113
-0.00864564
-0.0152016
0.00199808
0.0020184
0.00199943
0.00195076
0.00188938
0.00182891
0.00177508
0.00173146
0.00169274
0.0016518
0.00160513
0.00155574
0.00150041
0.00143771
0.00137261
0.00130953
0.00124077
0.00115602
0.00104956
0.000918249
0.000750826
0.00052795
0.000222864
-0.000201669
-0.00080858
-0.00170635
-0.00308556
-0.00528614
-0.00896878
-0.0155457
0.00204021
0.0020513
0.00201694
0.00195407
0.00187989
0.00180847
0.00174578
0.00169443
0.00165121
0.00160912
0.00156354
0.00151489
0.00146015
0.00139601
0.00132579
0.00125395
0.00117566
0.0010814
0.000965039
0.000822309
0.000642496
0.000405571
8.35254e-05
-0.000362332
-0.00099413
-0.00191872
-0.00332256
-0.00554165
-0.00923542
-0.0158189
0.00207982
0.00208055
0.00203437
0.0019578
0.00187062
0.00178791
0.00171649
0.00165854
0.00161077
0.00156645
0.00152029
0.00147131
0.00141589
0.00134991
0.00127506
0.00119537
0.00110774
0.00100368
0.000876656
0.000721677
0.000528425
0.000277258
-6.04878e-05
-0.000524267
-0.00117577
-0.00211988
-0.0035391
-0.00576972
-0.00947307
-0.016068
0.0021173
0.00210914
0.00205134
0.0019619
0.00186171
0.00176716
0.00168666
0.00162188
0.00156946
0.00152246
0.00147513
0.00142477
0.00136769
0.00129929
0.00122013
0.00113318
0.00103643
0.000922481
0.000784452
0.000616909
0.000410128
0.000145189
-0.000206494
-0.000685054
-0.0013521
-0.00231008
-0.00374057
-0.0059798
-0.00968948
-0.0162925
0.00215225
0.00213686
0.00206776
0.00196646
0.00185338
0.00174633
0.00165601
0.00158399
0.00152688
0.00147703
0.00142798
0.00137561
0.00131616
0.00124469
0.00116107
0.00106713
0.000961616
0.000837826
0.000689036
0.000509334
0.000289603
1.17602e-05
-0.000352239
-0.000842988
-0.0015216
-0.00249007
-0.00392973
-0.00617682
-0.00989205
-0.0164961
0.00218195
0.00216113
0.00208555
0.00197299
0.00184588
0.00172563
0.0016247
0.00154543
0.00148309
0.00143022
0.00137882
0.00132411
0.00126156
0.00118666
0.00109811
0.000997401
0.000883237
0.000750058
0.000590975
0.000400049
0.000168208
-0.00012139
-0.000496296
-0.000996894
-0.00168418
-0.0026604
-0.00410715
-0.00636082
-0.010084
-0.0166987
0.00221036
0.0021843
0.00210117
0.00197768
0.00183781
0.00170518
0.00159382
0.00150674
0.00143869
0.001382
0.00132775
0.00127017
0.00120417
0.00112533
0.00103165
0.000924155
0.000801668
0.000659515
0.000490896
0.000289709
4.6952e-05
-0.000253305
-0.000637807
-0.00114611
-0.00183994
-0.00282178
-0.00427322
-0.00653065
-0.0102585
-0.0168815
0.00223908
0.00220705
0.00211283
0.00197881
0.00182865
0.00168508
0.00156365
0.00146805
0.00139379
0.00133241
0.00127482
0.00121379
0.00114413
0.00106091
0.000962078
0.000847828
0.00071746
0.000566711
0.000389385
0.000178908
-7.35056e-05
-0.000383235
-0.000775626
-0.00129017
-0.0019889
-0.00297481
-0.00442887
-0.00668634
-0.0104088
-0.0170219
0.00226391
0.0022266
0.00212436
0.00198023
0.0018193
0.00166493
0.00153346
0.00142932
0.00134821
0.00128171
0.00122009
0.00115529
0.00108157
0.000993857
0.00088977
0.000769052
0.000631121
0.000472358
0.000286998
6.83259e-05
-0.00019256
-0.000510172
-0.00090907
-0.0014286
-0.002131
-0.00311947
-0.00457475
-0.00683203
-0.0105546
-0.0171727
0.00228495
0.00224348
0.00213536
0.00198194
0.00180976
0.00164433
0.00150276
0.00139003
0.00130191
0.00122999
0.00116384
0.00109492
0.00101683
0.000924527
0.000815198
0.000688324
0.000543271
0.000377108
0.000184408
-4.14911e-05
-0.000309394
-0.000633396
-0.00103764
-0.00156111
-0.00226625
-0.00325649
-0.0047129
-0.00697089
-0.0106944
-0.0173135
0.00230472
0.00225948
0.00214381
0.00198153
0.00179936
0.00162325
0.00147166
0.00135022
0.00125503
0.00117738
0.00110644
0.00103297
0.000950342
0.000853293
0.000738874
0.000606136
0.000454541
0.00028157
8.23282e-05
-0.000149786
-0.000423382
-0.000752543
-0.00116104
-0.00168762
-0.00239477
-0.00338635
-0.00484377
-0.00710261
-0.0108263
-0.0174443
0.00232153
0.00227266
0.00215086
0.00198017
0.00178818
0.00160172
0.00144027
0.0013102
0.00120775
0.00112418
0.00104817
0.000969914
0.000882526
0.000780689
0.000661287
0.000523089
0.000365489
0.00018638
-1.87201e-05
-0.000255949
-0.000534119
-0.000867345
-0.00127918
-0.00180809
-0.00251657
-0.00350878
-0.00496657
-0.00722583
-0.01095
-0.0175678
0.00233539
0.00228324
0.00215626
0.00197776
0.00177617
0.0015797
0.00140866
0.0012701
0.00116029
0.0010706
0.000989299
0.000906112
0.000813821
0.000707204
0.000582968
0.00043971
0.000276655
9.20538e-05
-0.000118037
-0.000359492
-0.00064133
-0.000977714
-0.00139207
-0.00192256
-0.00263162
-0.00362352
-0.00508048
-0.00733888
-0.0110636
-0.0176859
0.0023479
0.00229244
0.00215917
0.00197286
0.00176255
0.00155691
0.00137693
0.00123005
0.00111288
0.00101685
0.000930131
0.00084189
0.0007447
0.000633327
0.000504473
0.000356522
0.000188621
-7.81512e-07
-0.000215058
-0.000460024
-0.000744766
-0.00108356
-0.00149969
-0.00203111
-0.00274005
-0.00373085
-0.00518586
-0.00744165
-0.0111632
-0.0177834
0.00235827
0.00229929
0.00215998
0.0019661
0.00174753
0.00153342
0.00134506
0.00119013
0.00106566
0.00096318
0.00087092
0.000777629
0.000675601
0.000559576
0.000426323
0.000274062
0.000101862
-9.15558e-05
-0.000309323
-0.000557169
-0.000844181
-0.00118473
-0.001602
-0.00213379
-0.00284216
-0.00383139
-0.00528391
-0.00753664
-0.0112556
-0.0178765
0.00236589
0.00230388
0.00215924
0.00195843
0.00173198
0.0015096
0.001313
0.00115023
0.0010186
0.000909753
0.000811949
0.000713648
0.000606893
0.000486396
0.000348995
0.000192809
1.69541e-05
-0.000179831
-0.000400509
-0.000650687
-0.000939435
-0.00128119
-0.00169911
-0.00223089
-0.00293851
-0.00392631
-0.00537696
-0.0076276
-0.0113443
-0.0179642
0.00237041
0.00230601
0.00215716
0.00195026
0.00171623
0.00148563
0.0012809
0.0011105
0.000971891
0.000856846
0.000753525
0.000650315
0.000539005
0.000414297
0.000273063
0.0001134
-6.55909e-05
-0.000265198
-0.0004883
-0.00074035
-0.00103042
-0.00137296
-0.0017912
-0.00232278
-0.00302967
-0.00401633
-0.00546576
-0.00771581
-0.011434
-0.0180579
0.0023726
0.00230609
0.00215338
0.00194087
0.00169983
0.00146146
0.00124895
0.00107121
0.000925844
0.000804756
0.000696068
0.000588107
0.000472481
0.000343841
0.000199091
3.64291e-05
-0.000145231
-0.000347201
-0.000572311
-0.00082587
-0.00111693
-0.00145999
-0.00187834
-0.00240965
-0.00311595
-0.00410181
-0.00555047
-0.00780008
-0.0115183
-0.0181427
0.00237345
0.00230466
0.00214775
0.0019298
0.00168236
0.00143704
0.00121737
0.00103264
0.000880778
0.000753843
0.000640001
0.000527497
0.000407829
0.000275582
0.000127743
-3.75452e-05
-0.000221474
-0.000425433
-0.000652192
-0.000906975
-0.00119879
-0.00154218
-0.00196051
-0.00249153
-0.00319728
-0.00418241
-0.00563026
-0.00787905
-0.0115964
-0.01822
0.00237239
0.00230143
0.00214076
0.00191779
0.00166446
0.00141267
0.00118634
0.000995076
0.000837052
0.000704541
0.000585811
0.000469037
0.000345642
0.000210148
5.95393e-05
-0.000108074
-0.000293966
-0.000499597
-0.000727717
-0.000983487
-0.00127587
-0.00161944
-0.00203763
-0.00256825
-0.00327335
-0.00425758
-0.00570427
-0.00795171
-0.0116677
-0.0182909
0.00236963
0.0022968
0.00213278
0.00190525
0.00164646
0.00138865
0.00115612
0.000958764
0.000794998
0.000657276
0.000533967
0.000413241
0.00028644
0.000148009
-5.10224e-06
-0.000174797
-0.000362404
-0.000569443
-0.000798673
-0.00105521
-0.00134798
-0.00169158
-0.00210947
-0.0026395
-0.00334375
-0.00432687
-0.00577224
-0.00801831
-0.0117332
-0.0183564
0.00236562
0.00229109
0.00212402
0.00189236
0.00162858
0.00136524
0.00112698
0.000924031
0.000754995
0.000612475
0.000484953
0.000360611
0.000230715
8.96338e-05
-6.57303e-05
-0.000237283
-0.000426378
-0.000634585
-0.000864688
-0.00112179
-0.00141478
-0.00175826
-0.00217571
-0.00270503
-0.00340832
-0.00439029
-0.00583443
-0.00807935
-0.0117936
-0.018417
0.00236074
0.00228464
0.00211479
0.00187939
0.00161111
0.00134277
0.00109933
0.000891294
0.000717479
0.000570618
0.000439284
0.000311666
0.000178987
3.55339e-05
-0.000121825
-0.000295006
-0.000485372
-0.000694532
-0.000925307
-0.0011828
-0.0014759
-0.00181917
-0.00223614
-0.00276473
-0.0034671
-0.00444801
-0.00589104
-0.00813498
-0.0118486
-0.0184724
0.00235533
0.00227785
0.00210554
0.00186675
0.00159442
0.00132165
0.00107359
0.000861016
0.000682952
0.000532237
0.000397506
0.000266968
0.000131812
-1.37275e-05
-0.000172828
-0.000347417
-0.000538869
-0.000748818
-0.000980117
-0.00123789
-0.00153101
-0.00187406
-0.0022906
-0.00281857
-0.00352018
-0.00450021
-0.00594229
-0.00818531
-0.0118983
-0.0185223
0.00234992
0.00227122
0.00209669
0.0018549
0.00157903
0.00130234
0.00105023
0.000833727
0.000652016
0.000497994
0.00036033
0.000227255
8.99386e-05
-5.74273e-05
-0.000218048
-0.000393866
-0.000586261
-0.000796879
-0.0010286
-0.00128658
-0.0015797
-0.00192258
-0.00233877
-0.00286629
-0.00356734
-0.00454679
-0.00598826
-0.00823069
-0.0119432
-0.0185671
0.00234481
0.00226512
0.00208875
0.00184442
0.00156548
0.00128539
0.00102984
0.000810053
0.000625358
0.000468665
0.00032863
0.000193483
5.43728e-05
-9.4525e-05
-0.000256428
-0.000433275
-0.000626448
-0.000837608
-0.00106966
-0.00132778
-0.00162089
-0.00196362
-0.00237956
-0.00290675
-0.00360747
-0.0045866
-0.00602787
-0.0082703
-0.0119831
-0.0186077
0.00234058
0.00225991
0.00208201
0.00183553
0.00155404
0.00127124
0.00101301
0.000790836
0.000604018
0.000445435
0.000303687
0.000166994
2.6512e-05
-0.000123572
-0.000286467
-0.000464096
-0.000657848
-0.000869384
-0.00110164
-0.0013598
-0.00165283
-0.00199537
-0.00241106
-0.00293796
-0.00363841
-0.00461734
-0.00605857
-0.00830114
-0.0120143
-0.0186393
0.00233913
0.00225768
0.00207712
0.00182715
0.00154234
0.00125682
0.000996583
0.000772834
0.000584563
0.000424471
0.00028112
0.000142793
7.32876e-07
-0.000150824
-0.000315018
-0.000493763
-0.000688423
-0.000900674
-0.00113345
-0.00139195
-0.00168515
-0.00202767
-0.00244314
-0.00296962
-0.00366942
-0.00464754
-0.0060879
-0.00832985
-0.0120434
-0.0186717
0.0142615
0.0139655
0.012479
0.0103091
0.00751476
0.00422593
0.000607612
-0.00297825
-0.00581364
-0.00725498
-0.00731957
-0.0065605
-0.00555139
-0.00461857
-0.00388998
-0.00338454
-0.0030677
-0.00288748
-0.00279518
-0.00275301
-0.00273482
-0.00272418
-0.00271194
-0.00269402
-0.00266962
-0.00263978
-0.00260638
-0.00257145
-0.00253673
-0.0025035
-0.00247256
-0.00244426
-0.00241864
-0.00239559
-0.0023749
-0.00235636
-0.0023398
-0.00232509
-0.00231214
-0.00230084
-0.0022911
-0.00228283
-0.00227592
-0.00227026
-0.00226574
-0.00226227
-0.00225974
-0.0022581
-0.00225727
-0.00225723
-0.00225793
-0.00225934
-0.00226145
-0.00226424
-0.00226767
-0.00227173
-0.0022764
-0.00228165
-0.00228746
-0.00229381
-0.00230067
-0.00230803
-0.00231586
-0.00232415
-0.00233288
-0.00234202
-0.00235157
-0.00236151
-0.00237182
-0.00238249
-0.00239351
-0.00240487
-0.00241655
-0.00242854
-0.00244083
-0.00245342
-0.0024663
-0.00247946
-0.00249288
-0.00250658
-0.00252053
-0.00253474
-0.00254919
-0.00256388
-0.00257881
-0.00259397
-0.00260935
-0.00262496
-0.00264078
-0.00265682
-0.00267306
-0.00268951
-0.00270615
-0.00272299
-0.00274002
-0.00275723
-0.00277462
-0.00279219
-0.00280992
-0.00282783
-0.0028459
-0.00286412
-0.0028825
-0.00290103
-0.00291971
-0.00293853
-0.0029575
-0.0029766
-0.00299583
-0.0030152
-0.0030347
-0.00305434
-0.0030741
-0.00309399
-0.00311401
-0.00313416
-0.00315444
-0.00317485
-0.00319538
-0.00321604
-0.00323683
-0.00325774
-0.00327877
-0.00329993
-0.00332121
-0.0033426
-0.00336412
-0.00338574
-0.00340748
-0.00342932
-0.00345126
-0.00347331
-0.00349544
-0.00351767
-0.00353999
-0.00356239
-0.00358488
-0.00360745
-0.00363011
-0.00365284
-0.00367565
-0.00369854
-0.00372152
-0.00374457
-0.00376771
-0.00379093
-0.00381424
-0.00383763
-0.00386111
-0.00388467
-0.00390833
-0.00393207
-0.0039559
-0.00397981
-0.00400381
-0.00402788
-0.00405204
-0.00407628
-0.00410059
-0.00412497
-0.00414942
-0.00417394
-0.00419853
-0.00422317
-0.00424788
-0.00427265
-0.00429747
-0.00432236
-0.00434731
-0.00437232
-0.00439739
-0.00442252
-0.00444771
-0.00447297
-0.00449829
-0.00452367
-0.00454912
-0.00457463
-0.0046002
-0.00462584
-0.00465155
-0.00467731
-0.00470314
-0.00472903
-0.00475497
-0.00478098
-0.00480706
-0.00483318
-0.00485937