/*--------------------------------*- C++ -*----------------------------------*\
| =========                 |                                                 |
| \\      /  F ield         | OpenFOAM: The Open Source CFD Toolbox           |
|  \\    /   O peration     | Version:  v2006                                 |
|   \\  /    A nd           | Website:  www.openfoam.com                      |
|    \\/     M anipulation  |                                                 |
\*---------------------------------------------------------------------------*/
FoamFile
{
    version     2.0;
    format      ascii;
    class       surfaceScalarField;
    location    "1.5";
    object      phi;
}
// * * * * * * * * * * * * * * * * * * * * * * * * * * * * * * * * * * * * * //

dimensions      [0 3 -1 0 0 0 0];
oriented        oriented;


internalField   nonuniform List<scalar> 
52390
(
1.17004e-06
-3.20477e-07
1.17004e-06
2.80233e-07
1.17312e-06
-2.53719e-07
1.17329e-06
2.18267e-07
1.17679e-06
-2.09644e-07
1.17689e-06
1.67621e-07
1.18031e-06
-1.67841e-07
1.18019e-06
1.28337e-07
1.18339e-06
-1.34987e-07
1.18307e-06
9.87124e-08
1.18607e-06
-1.09666e-07
1.18554e-06
7.57745e-08
1.18838e-06
-8.90917e-08
1.18762e-06
5.71269e-08
1.19034e-06
-7.23858e-08
1.18932e-06
4.20362e-08
1.19194e-06
-5.90211e-08
1.1906e-06
3.03017e-08
1.19318e-06
-4.81034e-08
1.19141e-06
2.16065e-08
1.19402e-06
-3.8956e-08
1.19169e-06
1.53541e-08
1.19441e-06
-3.08276e-08
1.19131e-06
1.0885e-08
1.19423e-06
-2.26676e-08
1.19029e-06
7.357e-09
1.19287e-06
-1.14108e-08
1.1866e-06
4.47057e-09
1.18214e-06
1.86892e-08
2.36919e-08
1.15366e-06
1.2271e-06
-3.2332e-07
1.22764e-06
2.79698e-07
1.23152e-06
-2.57604e-07
1.23224e-06
2.17547e-07
1.23608e-06
-2.13485e-07
1.23652e-06
1.67185e-07
1.23991e-06
-1.71232e-07
1.24018e-06
1.28073e-07
1.24307e-06
-1.3788e-07
1.24329e-06
9.84909e-08
1.24566e-06
-1.12039e-07
1.24592e-06
7.55182e-08
1.24777e-06
-9.09411e-08
1.24814e-06
5.67561e-08
1.24939e-06
-7.36377e-08
1.24999e-06
4.14327e-08
1.25053e-06
-5.95525e-08
1.25151e-06
2.93202e-08
1.25113e-06
-4.77291e-08
1.25269e-06
2.00535e-08
1.25115e-06
-3.74196e-08
1.25351e-06
1.29951e-08
1.25048e-06
-2.77957e-08
1.25386e-06
7.49998e-09
1.24899e-06
-1.77999e-08
1.25342e-06
2.93464e-09
1.24638e-06
-4.37686e-09
1.24969e-06
1.16296e-09
1.23781e-06
3.0572e-08
3.89829e-08
1.22252e-06
1.28549e-06
-3.26028e-07
1.28903e-06
2.76162e-07
1.2918e-06
-2.60379e-07
1.29502e-06
2.14331e-07
1.29717e-06
-2.15633e-07
1.3e-06
1.64356e-07
1.30127e-06
-1.72502e-07
1.30392e-06
1.25422e-07
1.30434e-06
-1.38299e-07
1.30702e-06
9.58053e-08
1.30661e-06
-1.11628e-07
1.30947e-06
7.26632e-08
1.30825e-06
-8.97242e-08
1.31135e-06
5.36503e-08
1.30932e-06
-7.15979e-08
1.31274e-06
3.80111e-08
1.30986e-06
-5.6678e-08
1.31362e-06
2.5564e-08
1.30992e-06
-4.40355e-08
1.31397e-06
1.60104e-08
1.30953e-06
-3.29831e-08
1.3137e-06
8.82989e-09
1.3087e-06
-2.28041e-08
1.31261e-06
3.59505e-09
1.3075e-06
-1.26874e-08
1.31032e-06
1.11998e-10
1.30598e-06
-3.80548e-11
1.30355e-06
3.59059e-09
1.30067e-06
3.34581e-08
6.14816e-08
1.27817e-06
1.34585e-06
-3.2778e-07
1.352e-06
2.70018e-07
1.3532e-06
-2.61578e-07
1.35868e-06
2.08846e-07
1.35887e-06
-2.15821e-07
1.36383e-06
1.59394e-07
1.36294e-06
-1.71614e-07
1.36753e-06
1.2084e-07
1.36574e-06
-1.36515e-07
1.37014e-06
9.14086e-08
1.36761e-06
-1.09096e-07
1.37192e-06
6.83544e-08
1.3688e-06
-8.66048e-08
1.37301e-06
4.94343e-08
1.36944e-06
-6.80283e-08
1.37352e-06
3.3932e-08
1.36965e-06
-5.28064e-08
1.37351e-06
2.17059e-08
1.36949e-06
-4.0017e-08
1.37301e-06
1.24947e-08
1.369e-06
-2.89731e-08
1.372e-06
5.82981e-09
1.36817e-06
-1.89828e-08
1.37034e-06
1.42965e-09
1.3671e-06
-9.44353e-09
1.36754e-06
-3.28098e-10
1.36582e-06
1.67888e-09
1.3606e-06
8.8067e-09
1.36011e-06
3.3951e-08
8.46836e-08
1.33691e-06
1.4086e-06
-3.28024e-07
1.41615e-06
2.62468e-07
1.41573e-06
-2.6116e-07
1.42241e-06
2.02168e-07
1.421e-06
-2.14411e-07
1.42701e-06
1.53385e-07
1.4247e-06
-1.69303e-07
1.43003e-06
1.15508e-07
1.42711e-06
-1.33593e-07
1.43192e-06
8.65969e-08
1.42861e-06
-1.05791e-07
1.433e-06
6.39665e-08
1.42951e-06
-8.31177e-08
1.43348e-06
4.54699e-08
1.42995e-06
-6.45018e-08
1.43349e-06
3.03964e-08
1.43002e-06
-4.93421e-08
1.43313e-06
1.86011e-08
1.42978e-06
-3.66749e-08
1.43245e-06
9.83313e-09
1.42925e-06
-2.57786e-08
1.43141e-06
3.67662e-09
1.42842e-06
-1.59993e-08
1.4298e-06
5.21851e-11
1.42735e-06
-6.98929e-09
1.4271e-06
-8.38981e-11
1.42558e-06
3.2012e-09
1.42115e-06
1.32322e-08
1.41827e-06
3.68351e-08
1.10617e-07
1.39234e-06
1.47432e-06
-3.26665e-07
1.48196e-06
2.5483e-07
1.48025e-06
-2.59458e-07
1.48693e-06
1.95495e-07
1.48457e-06
-2.1205e-07
1.49052e-06
1.47435e-07
1.48764e-06
-1.66421e-07
1.49274e-06
1.104e-07
1.4896e-06
-1.30455e-07
1.49404e-06
8.21604e-08
1.49082e-06
-1.02567e-07
1.49473e-06
6.00493e-08
1.49154e-06
-7.99273e-08
1.495e-06
4.20095e-08
1.49189e-06
-6.13905e-08
1.49496e-06
2.7332e-08
1.49193e-06
-4.63157e-08
1.49465e-06
1.58797e-08
1.4917e-06
-3.37232e-08
1.49409e-06
7.44473e-09
1.49121e-06
-2.2896e-08
1.49318e-06
1.70678e-09
1.49043e-06
-1.32502e-08
1.49171e-06
-1.22998e-09
1.4892e-06
-4.48327e-09
1.48944e-06
-3.20431e-10
1.48655e-06
6.09511e-09
1.48435e-06
1.54244e-08
1.48327e-06
3.7923e-08
6.42151e-08
1.52967e-06
1.54351e-06
-3.23959e-07
1.55038e-06
2.4796e-07
1.54782e-06
-2.56898e-07
1.55377e-06
1.89547e-07
1.55096e-06
-2.0924e-07
1.55629e-06
1.42102e-07
1.5533e-06
-1.63427e-07
1.55785e-06
1.05849e-07
1.55481e-06
-1.27414e-07
1.55877e-06
7.81935e-08
1.55575e-06
-9.95418e-08
1.55931e-06
5.64829e-08
1.55634e-06
-7.6953e-08
1.55958e-06
3.87687e-08
1.55664e-06
-5.84529e-08
1.55961e-06
2.4365e-08
1.55669e-06
-4.33982e-08
1.5594e-06
1.31675e-08
1.55651e-06
-3.08319e-08
1.55892e-06
5.03314e-09
1.5561e-06
-2.00728e-08
1.55805e-06
-2.41181e-10
1.55542e-06
-1.06213e-08
1.55653e-06
-2.33659e-09
1.55444e-06
-2.39553e-09
1.55374e-06
3.79355e-10
1.55263e-06
7.20882e-09
1.54774e-06
2.03151e-08
1.54348e-06
4.2182e-08
9.51209e-08
1.51257e-06
1.61645e-06
-3.20276e-07
1.62234e-06
2.42061e-07
1.61921e-06
-2.53761e-07
1.62433e-06
1.84426e-07
1.62125e-06
-2.06158e-07
1.62597e-06
1.3738e-07
1.6229e-06
-1.60355e-07
1.62702e-06
1.01721e-07
1.62397e-06
-1.24358e-07
1.6277e-06
7.44662e-08
1.62465e-06
-9.64985e-08
1.62814e-06
5.29997e-08
1.62511e-06
-7.3928e-08
1.62838e-06
3.54955e-08
1.62536e-06
-5.54325e-08
1.62843e-06
2.13026e-08
1.62542e-06
-4.03892e-08
1.62823e-06
1.03588e-08
1.62528e-06
-2.7882e-08
1.62772e-06
2.58714e-09
1.62493e-06
-1.72822e-08
1.62678e-06
-2.09178e-09
1.62431e-06
-8.14861e-09
1.62514e-06
-3.16312e-09
1.62337e-06
-6.30693e-10
1.62202e-06
1.7264e-09
1.6216e-06
7.63216e-09
1.61651e-06
2.54059e-08
1.61175e-06
4.69462e-08
1.31699e-07
1.57517e-06
1.69321e-06
-3.15912e-07
1.69841e-06
2.36864e-07
1.69479e-06
-2.50139e-07
1.69937e-06
1.79843e-07
1.69598e-06
-2.02765e-07
1.70037e-06
1.32986e-07
1.69707e-06
-1.57059e-07
1.70105e-06
9.77408e-08
1.69778e-06
-1.21082e-07
1.70151e-06
7.07394e-08
1.69823e-06
-9.32231e-08
1.70181e-06
4.9421e-08
1.69855e-06
-7.06695e-08
1.70197e-06
3.20803e-08
1.69873e-06
-5.21992e-08
1.70193e-06
1.81028e-08
1.69876e-06
-3.72178e-08
1.70165e-06
7.46918e-09
1.69862e-06
-2.48524e-08
1.70105e-06
1.59222e-10
1.69828e-06
-1.45114e-08
1.70002e-06
-3.8316e-09
1.69756e-06
-5.69574e-09
1.69853e-06
-4.13314e-09
1.69572e-06
2.18708e-09
1.69645e-06
9.93153e-10
1.6913e-06
1.27807e-08
1.69581e-06
2.08973e-08
1.69688e-06
4.58748e-08
8.22349e-08
1.74635e-06
1.77384e-06
-3.11031e-07
1.77877e-06
2.31935e-07
1.77465e-06
-2.46017e-07
1.77907e-06
1.75419e-07
1.77527e-06
-1.98963e-07
1.77965e-06
1.28609e-07
1.77598e-06
-1.53397e-07
1.78005e-06
9.36718e-08
1.77642e-06
-1.17445e-07
1.7803e-06
6.68523e-08
1.77668e-06
-8.96013e-08
1.78045e-06
4.56545e-08
1.77688e-06
-6.71006e-08
1.78047e-06
2.84898e-08
1.77699e-06
-4.8719e-08
1.78031e-06
1.47824e-08
1.77699e-06
-3.38934e-08
1.77989e-06
4.56301e-09
1.77685e-06
-2.18079e-08
1.77913e-06
-2.12051e-09
1.77651e-06
-1.18958e-08
1.77793e-06
-5.25499e-09
1.77577e-06
-3.53311e-09
1.77627e-06
-4.63119e-09
1.77369e-06
4.76386e-09
1.77427e-06
4.12194e-10
1.76817e-06
1.88799e-08
1.77458e-06
1.44872e-08
1.77623e-06
4.42324e-08
2.64408e-08
1.83202e-06
1.85842e-06
-3.05698e-07
1.86346e-06
2.26894e-07
1.85878e-06
-2.41342e-07
1.86335e-06
1.70851e-07
1.85906e-06
-1.94673e-07
1.86365e-06
1.24015e-07
1.85955e-06
-1.49289e-07
1.86387e-06
8.93516e-08
1.8598e-06
-1.13383e-07
1.86395e-06
6.2704e-08
1.85994e-06
-8.55934e-08
1.86395e-06
4.16499e-08
1.86006e-06
-6.32099e-08
1.86383e-06
2.47184e-08
1.86012e-06
-4.50136e-08
1.86353e-06
1.13788e-08
1.86011e-06
-3.04744e-08
1.86295e-06
1.71786e-09
1.85999e-06
-1.88386e-08
1.86201e-06
-4.14593e-09
1.85967e-06
-9.55412e-09
1.86062e-06
-6.2096e-09
1.85896e-06
-1.86692e-09
1.85856e-06
-4.2302e-09
1.85738e-06
5.93939e-09
1.85529e-06
2.50772e-09
1.8536e-06
2.05612e-08
1.8486e-06
1.94944e-08
1.83882e-06
5.40131e-08
6.23298e-08
1.80293e-06
1.94707e-06
-2.9993e-07
1.95249e-06
2.21476e-07
1.94721e-06
-2.36061e-07
1.95212e-06
1.65937e-07
1.94729e-06
-1.89841e-07
1.95226e-06
1.19047e-07
1.94766e-06
-1.44693e-07
1.95234e-06
8.46727e-08
1.94783e-06
-1.08871e-07
1.9523e-06
5.82296e-08
1.94791e-06
-8.11961e-08
1.95218e-06
3.73801e-08
1.94799e-06
-5.90201e-08
1.95193e-06
2.07784e-08
1.94805e-06
-4.11375e-08
1.95148e-06
7.94587e-09
1.94806e-06
-2.70522e-08
1.95075e-06
-9.70498e-10
1.94798e-06
-1.60653e-08
1.94964e-06
-5.81018e-09
1.94768e-06
-7.5945e-09
1.94808e-06
-6.61019e-09
1.94698e-06
-7.61929e-10
1.94576e-06
-3.01771e-09
1.94542e-06
6.28772e-09
1.9418e-06
6.12144e-09
1.94277e-06
1.95932e-08
1.93162e-06
3.06466e-08
1.92699e-06
5.86384e-08
9.35609e-08
1.89576e-06
2.03998e-06
-2.93722e-07
2.04595e-06
2.15509e-07
2.04001e-06
-2.30126e-07
2.0454e-06
1.60551e-07
2.03998e-06
-1.84425e-07
2.04542e-06
1.13604e-07
2.04031e-06
-1.39581e-07
2.04542e-06
7.95669e-08
2.04045e-06
-1.03902e-07
2.04529e-06
5.33947e-08
2.04052e-06
-7.64274e-08
2.04505e-06
3.28455e-08
2.04061e-06
-5.45792e-08
2.04468e-06
1.67106e-08
2.04072e-06
-3.71755e-08
2.04409e-06
4.56855e-09
2.0408e-06
-2.37536e-08
2.0432e-06
-3.37477e-09
2.04077e-06
-1.36375e-08
2.04195e-06
-6.99286e-09
2.04049e-06
-6.13026e-09
2.04028e-06
-6.40323e-09
2.03964e-06
-1.17713e-10
2.03809e-06
-1.47357e-09
2.03735e-06
7.03047e-09
2.03418e-06
9.29216e-09
2.03309e-06
2.06856e-08
2.02605e-06
3.76886e-08
2.01455e-06
7.01332e-08
1.2682e-07
1.98129e-06
2.13734e-06
-2.87065e-07
2.14397e-06
2.08882e-07
2.13733e-06
-2.23486e-07
2.14327e-06
1.54611e-07
2.13723e-06
-1.78386e-07
2.14322e-06
1.0762e-07
2.13757e-06
-1.33938e-07
2.14314e-06
7.39953e-08
2.13773e-06
-9.8483e-08
2.14293e-06
4.81927e-08
2.13782e-06
-7.13208e-08
2.14259e-06
2.80747e-08
2.13797e-06
-4.99547e-08
2.1421e-06
1.25822e-08
2.13815e-06
-3.32304e-08
2.14137e-06
1.34877e-09
2.13832e-06
-2.06997e-08
2.14033e-06
-5.39293e-09
2.13835e-06
-1.1657e-08
2.139e-06
-7.63838e-09
2.13801e-06
-5.14154e-09
2.13748e-06
-5.87148e-09
2.1366e-06
7.6414e-10
2.13575e-06
-6.28372e-10
2.13352e-06
9.26237e-09
2.13167e-06
1.11469e-08
2.12604e-06
2.63157e-08
2.13201e-06
3.17115e-08
2.15565e-06
4.64907e-08
5.19256e-08
2.23055e-06
2.23937e-06
-2.79942e-07
2.24674e-06
2.01513e-07
2.23934e-06
-2.16092e-07
2.2459e-06
1.48057e-07
2.2392e-06
-1.7169e-07
2.24577e-06
1.01052e-07
2.23958e-06
-1.27753e-07
2.24563e-06
6.79446e-08
2.23978e-06
-9.26325e-08
2.24533e-06
4.26469e-08
2.23994e-06
-6.59328e-08
2.24488e-06
2.31323e-08
2.24017e-06
-4.52454e-08
2.24425e-06
8.50417e-09
2.24047e-06
-2.94479e-08
2.24337e-06
-1.55555e-09
2.24074e-06
-1.80686e-08
2.24221e-06
-6.85949e-09
2.24084e-06
-1.02894e-08
2.2408e-06
-7.59455e-09
2.24048e-06
-4.81987e-09
2.23912e-06
-4.51658e-09
2.23924e-06
6.45859e-10
2.23688e-06
1.72893e-09
2.23628e-06
9.86963e-09
2.23287e-06
1.45533e-08
2.23046e-06
2.87262e-08
2.22342e-06
3.87478e-08
2.20739e-06
6.25278e-08
8.27828e-08
2.17653e-06
2.34627e-06
-2.72337e-07
2.35444e-06
1.93339e-07
2.34625e-06
-2.07896e-07
2.35346e-06
1.40844e-07
2.34608e-06
-1.64307e-07
2.35325e-06
9.38773e-08
2.34653e-06
-1.21028e-07
2.35305e-06
6.14219e-08
2.3468e-06
-8.6385e-08
2.35265e-06
3.68039e-08
2.34705e-06
-6.03382e-08
2.35207e-06
1.81084e-08
2.3474e-06
-4.05697e-08
2.35129e-06
4.60841e-09
2.34783e-06
-2.59833e-08
2.35026e-06
-3.98592e-09
2.34821e-06
-1.60174e-08
2.349e-06
-7.65226e-09
2.34833e-06
-9.61804e-09
2.34756e-06
-6.82609e-09
2.34793e-06
-5.18805e-09
2.34561e-06
-2.19696e-09
2.34702e-06
-7.63409e-10
2.34276e-06
5.99088e-09
2.34446e-06
8.16786e-09
2.33858e-06
2.04352e-08
2.33945e-06
2.78499e-08
2.32464e-06
5.35627e-08
2.31509e-06
7.20742e-08
1.07028e-07
2.29085e-06
2.45829e-06
-2.64236e-07
2.46732e-06
1.84318e-07
2.45828e-06
-1.98861e-07
2.46617e-06
1.32949e-07
2.45809e-06
-1.56227e-07
2.46587e-06
8.60994e-08
2.45863e-06
-1.13784e-07
2.46558e-06
5.44662e-08
2.459e-06
-7.98047e-08
2.46506e-06
3.07475e-08
2.45937e-06
-5.46461e-08
2.46435e-06
1.31274e-08
2.45985e-06
-3.60666e-08
2.46342e-06
1.03114e-09
2.4604e-06
-2.29601e-08
2.46227e-06
-5.8592e-09
2.46083e-06
-1.45737e-08
2.46103e-06
-7.84928e-09
2.4608e-06
-9.38894e-09
2.4598e-06
-5.83163e-09
2.45999e-06
-5.37139e-09
2.45844e-06
-6.49195e-10
2.4582e-06
-5.24435e-10
2.45602e-06
8.1668e-09
2.45454e-06
9.64887e-09
2.45139e-06
2.35893e-08
2.44885e-06
3.03921e-08
2.44071e-06
6.17003e-08
2.42254e-06
9.02438e-08
1.41232e-07
2.38834e-06
2.57569e-06
-2.55631e-07
2.58559e-06
1.74422e-07
2.57569e-06
-1.88966e-07
2.58427e-06
1.24367e-07
2.5755e-06
-1.47456e-07
2.58386e-06
7.7744e-08
2.57614e-06
-1.0607e-07
2.58347e-06
4.71437e-08
2.57665e-06
-7.29848e-08
2.5828e-06
2.45938e-08
2.57715e-06
-4.89961e-08
2.58194e-06
8.3405e-09
2.57776e-06
-3.18911e-08
2.58088e-06
-2.08541e-09
2.57841e-06
-2.04919e-08
2.57967e-06
-7.12354e-09
2.57881e-06
-1.37074e-08
2.57855e-06
-7.58685e-09
2.57851e-06
-9.35619e-09
2.57769e-06
-5.00466e-09
2.577e-06
-4.68737e-09
2.57717e-06
-8.1409e-10
2.57424e-06
2.40523e-09
2.57533e-06
7.07389e-09
2.56987e-06
1.51066e-08
2.56913e-06
2.43279e-08
2.56124e-06
3.82811e-08
2.57825e-06
4.46937e-08
2.61404e-06
5.44535e-08
5.43988e-08
2.70087e-06
2.69872e-06
-2.46521e-07
2.70951e-06
1.63632e-07
2.69875e-06
-1.78204e-07
2.70801e-06
1.15106e-07
2.69857e-06
-1.3802e-07
2.70745e-06
6.88606e-08
2.69934e-06
-9.79596e-08
2.70693e-06
3.95529e-08
2.70001e-06
-6.60564e-08
2.7061e-06
1.85033e-08
2.70067e-06
-4.35739e-08
2.70507e-06
3.94934e-09
2.70144e-06
-2.82632e-08
2.70387e-06
-4.52166e-09
2.70215e-06
-1.87654e-08
2.70266e-06
-7.6405e-09
2.7025e-06
-1.3541e-08
2.70157e-06
-6.65923e-09
2.70215e-06
-9.93107e-09
2.70054e-06
-3.40285e-09
2.70106e-06
-5.20665e-09
2.69916e-06
1.08821e-09
2.69888e-06
2.68856e-09
2.69659e-06
9.36356e-09
2.69466e-06
1.70296e-08
2.69176e-06
2.72304e-08
2.68825e-06
4.17937e-08
2.67919e-06
5.37574e-08
2.65803e-06
7.56058e-08
8.9246e-08
2.62319e-06
2.82765e-06
-2.36899e-07
2.83934e-06
1.51939e-07
2.82771e-06
-1.66576e-07
2.83763e-06
1.05185e-07
2.82757e-06
-1.27954e-07
2.83692e-06
5.95081e-08
2.82849e-06
-8.95314e-08
2.83625e-06
3.17946e-08
2.82934e-06
-5.91434e-08
2.83524e-06
1.26e-08
2.83013e-06
-3.84652e-08
2.83408e-06
-9.78256e-13
2.83102e-06
-2.52059e-08
2.83279e-06
-6.29303e-09
2.83175e-06
-1.77242e-08
2.83163e-06
-7.51882e-09
2.83199e-06
-1.38976e-08
2.8306e-06
-5.2734e-09
2.83167e-06
-1.10033e-08
2.82918e-06
-9.07144e-10
2.83111e-06
-7.14054e-09
2.82675e-06
5.45232e-09
2.82998e-06
-5.38074e-10
2.82346e-06
1.58828e-08
2.827e-06
1.34882e-08
2.81931e-06
3.49144e-08
2.8204e-06
4.07073e-08
2.7998e-06
7.43569e-08
2.79035e-06
8.50521e-08
1.13996e-07
2.7656e-06
2.96277e-06
-2.26775e-07
2.97535e-06
1.39362e-07
2.96289e-06
-1.5412e-07
2.97341e-06
9.46686e-08
2.96279e-06
-1.17337e-07
2.9725e-06
4.98047e-08
2.9639e-06
-8.09321e-08
2.97164e-06
2.40517e-08
2.96497e-06
-5.2472e-08
2.97039e-06
7.17996e-09
2.96605e-06
-3.41283e-08
2.96897e-06
-2.91759e-09
2.96703e-06
-2.32648e-08
2.96777e-06
-7.03241e-09
2.96757e-06
-1.75265e-08
2.96688e-06
-6.83049e-09
2.96744e-06
-1.44606e-08
2.96621e-06
-4.0371e-09
2.96683e-06
-1.16223e-08
2.9652e-06
7.19624e-10
2.96541e-06
-7.34645e-09
2.96348e-06
7.37931e-09
2.96328e-06
-3.38218e-10
2.96007e-06
1.90894e-08
2.95841e-06
1.51456e-08
2.95588e-06
3.74482e-08
2.95317e-06
4.34187e-08
2.94215e-06
8.53771e-08
2.91668e-06
1.1052e-07
1.51923e-07
2.87875e-06
3.1044e-06
-2.16173e-07
3.11783e-06
1.25941e-07
3.10461e-06
-1.40901e-07
3.11564e-06
8.36364e-08
3.10457e-06
-1.06267e-07
3.1145e-06
3.98716e-08
3.10586e-06
-7.2292e-08
3.11346e-06
1.64546e-08
3.10713e-06
-4.61452e-08
3.11207e-06
2.24095e-09
3.10823e-06
-3.02921e-08
3.11074e-06
-5.42225e-09
3.109e-06
-2.15246e-08
3.10996e-06
-7.99603e-09
3.10885e-06
-1.64155e-08
3.10991e-06
-7.89318e-09
3.10773e-06
-1.22716e-08
3.11029e-06
-6.60104e-09
3.10566e-06
-6.99008e-09
3.11073e-06
-4.34834e-09
3.10276e-06
6.18463e-10
3.11047e-06
-3.32219e-10
3.09982e-06
1.03183e-08
3.10785e-06
1.10541e-08
3.09558e-06
2.74196e-08
3.09899e-06
3.40364e-08
3.08843e-06
5.39808e-08
3.12126e-06
5.25428e-08
3.16735e-06
6.44314e-08
5.98044e-08
3.25947e-06
3.25287e-06
-2.05128e-07
3.26707e-06
1.11736e-07
3.2532e-06
-1.27027e-07
3.26462e-06
7.22117e-08
3.25324e-06
-9.48855e-08
3.26322e-06
2.98891e-08
3.25475e-06
-6.38166e-08
3.26196e-06
9.24549e-09
3.25628e-06
-4.04704e-08
3.26031e-06
-1.79217e-09
3.2576e-06
-2.75829e-08
3.25885e-06
-6.66472e-09
3.25847e-06
-2.11458e-08
3.25792e-06
-7.45113e-09
3.25862e-06
-1.71115e-08
3.25728e-06
-6.55178e-09
3.25849e-06
-1.34798e-08
3.2562e-06
-4.31618e-09
3.25831e-06
-9.10372e-09
3.25438e-06
-4.17283e-10
3.25772e-06
-2.71571e-09
3.25163e-06
5.75324e-09
3.25537e-06
6.57953e-09
3.2482e-06
1.82215e-08
3.2521e-06
2.35191e-08
3.24588e-06
4.02565e-08
3.24737e-06
5.24981e-08
3.22665e-06
7.32584e-08
3.20309e-06
8.79942e-08
1.01646e-07
3.16125e-06
3.40848e-06
-1.93673e-07
3.42338e-06
9.6828e-08
3.40899e-06
-1.12632e-07
3.42066e-06
6.05413e-08
3.40913e-06
-8.33533e-08
3.41895e-06
2.00663e-08
3.41087e-06
-5.57395e-08
3.41742e-06
2.69386e-09
3.41274e-06
-3.57854e-08
3.41547e-06
-4.52467e-09
3.41429e-06
-2.63972e-08
3.41392e-06
-6.30301e-09
3.41509e-06
-2.23125e-08
3.41304e-06
-5.39563e-09
3.41526e-06
-1.93398e-08
3.41223e-06
-3.51996e-09
3.41538e-06
-1.66279e-08
3.41095e-06
1.09291e-10
3.41498e-06
-1.31313e-08
3.40929e-06
5.27679e-09
3.41431e-06
-7.73526e-09
3.40626e-06
1.3801e-08
3.41224e-06
5.96151e-10
3.40301e-06
2.74526e-08
3.40803e-06
1.85011e-08
3.40176e-06
4.65255e-08
3.40655e-06
4.77057e-08
3.38217e-06
9.76409e-08
3.35515e-06
1.15012e-07
1.46138e-07
3.31066e-06
3.57161e-06
-1.81872e-07
3.58709e-06
8.13441e-08
3.57236e-06
-9.79016e-08
3.5841e-06
4.88065e-08
3.57257e-06
-7.18251e-08
3.5821e-06
1.05384e-08
3.57441e-06
-4.80537e-08
3.58058e-06
-3.47137e-09
3.57612e-06
-3.1328e-08
3.57907e-06
-7.47392e-09
3.57692e-06
-2.42509e-08
3.57856e-06
-7.93976e-09
3.57651e-06
-2.02663e-08
3.57902e-06
-7.89742e-09
3.57511e-06
-1.54369e-08
3.57995e-06
-8.35927e-09
3.57285e-06
-9.52519e-09
3.58143e-06
-8.46893e-09
3.56984e-06
-1.54689e-09
3.58202e-06
-6.89921e-09
3.56663e-06
7.6542e-09
3.5822e-06
-1.76523e-09
3.56351e-06
1.92829e-08
3.57986e-06
1.11e-08
3.55957e-06
3.87947e-08
3.56978e-06
3.63142e-08
3.55565e-06
6.18365e-08
3.60412e-06
4.91695e-08
3.6562e-06
6.29306e-08
5.82475e-08
3.74409e-06
3.74264e-06
-1.69808e-07
3.75854e-06
6.54503e-08
3.74374e-06
-8.3102e-08
3.75528e-06
3.72608e-08
3.74401e-06
-6.0551e-08
3.7529e-06
1.64497e-09
3.74602e-06
-4.11743e-08
3.75121e-06
-8.66357e-09
3.7479e-06
-2.80184e-08
3.74953e-06
-9.10336e-09
3.74911e-06
-2.38285e-08
3.74832e-06
-7.14943e-09
3.74991e-06
-2.18528e-08
3.74691e-06
-4.89785e-09
3.75082e-06
-1.93523e-08
3.74521e-06
-2.74934e-09
3.75142e-06
-1.57322e-08
3.74339e-06
-4.38961e-10
3.75164e-06
-9.80085e-09
3.74179e-06
2.95145e-09
3.74984e-06
-3.97049e-10
3.73921e-06
8.86525e-09
3.74671e-06
1.17907e-08
3.73707e-06
2.07374e-08
3.74487e-06
3.09904e-08
3.73804e-06
4.31491e-08
3.73775e-06
6.21281e-08
3.71446e-06
7.24598e-08
3.68403e-06
9.33531e-08
1.07469e-07
3.63481e-06
3.92193e-06
-1.57552e-07
3.93804e-06
4.93448e-08
3.92351e-06
-6.85783e-08
3.93454e-06
2.62349e-08
3.92386e-06
-4.9869e-08
3.93168e-06
-6.18155e-09
3.9259e-06
-3.53897e-08
3.93005e-06
-1.28186e-08
3.92764e-06
-2.56011e-08
3.92861e-06
-1.00789e-08
3.92873e-06
-2.39464e-08
3.9273e-06
-5.72233e-09
3.93007e-06
-2.46202e-08
3.92519e-06
-1.82153e-11
3.93148e-06
-2.56407e-08
3.92281e-06
5.92239e-09
3.9331e-06
-2.60266e-08
3.91982e-06
1.2847e-08
3.93441e-06
-2.4393e-08
3.91637e-06
2.0988e-08
3.9349e-06
-1.89228e-08
3.91309e-06
3.0677e-08
3.93363e-06
-8.75418e-09
3.91139e-06
4.29778e-08
3.93382e-06
8.56378e-09
3.91545e-06
6.1521e-08
3.93632e-06
4.12559e-08
3.89056e-06
1.18218e-07
3.85798e-06
1.25928e-07
1.55244e-07
3.81021e-06
4.1099e-06
-1.45205e-07
4.126e-06
3.325e-08
4.11207e-06
-5.46513e-08
4.1224e-06
1.59029e-08
4.11217e-06
-3.96317e-08
4.11949e-06
-1.35045e-08
4.11362e-06
-2.95182e-08
4.11889e-06
-1.80889e-08
4.11378e-06
-2.04937e-08
4.11954e-06
-1.58374e-08
4.11248e-06
-1.68917e-08
4.12087e-06
-1.41039e-08
4.11039e-06
-1.4144e-08
4.12253e-06
-1.21547e-08
4.10824e-06
-1.13553e-08
4.12359e-06
-9.42833e-09
4.10627e-06
-8.70669e-09
4.12408e-06
-4.96061e-09
4.10448e-06
-4.79007e-09
4.12357e-06
1.89819e-09
4.10292e-06
1.7208e-09
4.12109e-06
1.25066e-08
4.10077e-06
1.15647e-08
4.11673e-06
2.70236e-08
4.09806e-06
2.72355e-08
4.11618e-06
4.33972e-08
4.10763e-06
4.98065e-08
4.15832e-06
6.75229e-08
4.21039e-06
7.38572e-08
8.51585e-08
4.28048e-06
4.30703e-06
-1.32928e-07
4.32274e-06
1.75391e-08
4.3103e-06
-4.22173e-08
4.31901e-06
7.19922e-09
4.31016e-06
-3.07811e-08
4.31551e-06
-1.88567e-08
4.31136e-06
-2.5368e-08
4.31501e-06
-2.17447e-08
4.31138e-06
-1.6862e-08
4.31588e-06
-2.03311e-08
4.31017e-06
-1.11818e-08
4.31712e-06
-2.10635e-08
4.30826e-06
-5.28331e-09
4.31879e-06
-2.26824e-08
4.30579e-06
1.64214e-09
4.32011e-06
-2.37485e-08
4.30359e-06
7.81796e-09
4.32091e-06
-2.22797e-08
4.30141e-06
1.4709e-08
4.32065e-06
-1.73383e-08
4.29925e-06
2.31206e-08
4.31938e-06
-7.62456e-09
4.29681e-06
3.41331e-08
4.31502e-06
8.81381e-09
4.29306e-06
4.91917e-08
4.31224e-06
2.42243e-08
4.31051e-06
5.1535e-08
4.36144e-06
1.65905e-08
4.40975e-06
2.5549e-08
4.21971e-09
4.49069e-06
4.51376e-06
-1.20919e-07
4.52857e-06
2.73759e-09
4.51944e-06
-3.30884e-08
4.52498e-06
1.65698e-09
4.5179e-06
-2.37033e-08
4.52079e-06
-2.17414e-08
4.51878e-06
-2.33611e-08
4.51949e-06
-2.24552e-08
4.51975e-06
-1.71214e-08
4.51914e-06
-1.97259e-08
4.52098e-06
-1.30165e-08
4.51804e-06
-1.81278e-08
4.52188e-06
-9.11884e-09
4.51652e-06
-1.73186e-08
4.52259e-06
-4.43336e-09
4.51512e-06
-1.62759e-08
4.5227e-06
2.34112e-10
4.51387e-06
-1.34426e-08
4.52186e-06
6.70927e-09
4.512e-06
-7.47363e-09
4.51912e-06
1.59983e-08
4.50827e-06
3.22914e-09
4.51303e-06
2.9367e-08
4.5044e-06
1.74474e-08
4.51212e-06
4.14742e-08
4.50492e-06
3.14201e-08
4.50858e-06
4.78816e-08
4.48004e-06
4.51235e-08
4.44239e-06
6.32032e-08
6.18719e-08
4.38474e-06
4.73035e-06
-1.09152e-07
4.74454e-06
-1.14567e-08
4.73643e-06
-2.49748e-08
4.74162e-06
-3.53633e-09
4.73498e-06
-1.70624e-08
4.7366e-06
-2.33649e-08
4.7355e-06
-2.22592e-08
4.73477e-06
-2.17262e-08
4.73758e-06
-1.99272e-08
4.73368e-06
-1.5828e-08
4.7395e-06
-1.88361e-08
4.73179e-06
-1.04135e-08
4.74104e-06
-1.83722e-08
4.72944e-06
-5.71849e-09
4.74258e-06
-1.75699e-08
4.72732e-06
-1.02039e-09
4.74321e-06
-1.56566e-08
4.72567e-06
4.0993e-09
4.74284e-06
-1.04623e-08
4.72428e-06
1.10917e-08
4.74134e-06
-1.06086e-09
4.72285e-06
2.17182e-08
4.73999e-06
1.22186e-08
4.72288e-06
3.45593e-08
4.73672e-06
2.76399e-08
4.71447e-06
5.36714e-08
4.71156e-06
5.07843e-08
4.68674e-06
6.99506e-08
4.68028e-06
6.96624e-08
9.43008e-08
4.64785e-06
4.95771e-06
-9.80611e-08
4.9694e-06
-2.31479e-08
4.96705e-06
-2.26223e-08
4.96601e-06
-2.50014e-09
4.96599e-06
-1.70447e-08
4.96114e-06
-1.85127e-08
4.96401e-06
-2.51266e-08
4.96038e-06
-1.81037e-08
4.96481e-06
-2.43508e-08
4.96049e-06
-1.15125e-08
4.96548e-06
-2.38199e-08
4.96012e-06
-5.06007e-09
4.96562e-06
-2.38736e-08
4.95938e-06
5.26301e-10
4.96504e-06
-2.32342e-08
4.95915e-06
4.87084e-09
4.96428e-06
-2.07813e-08
4.95795e-06
1.04219e-08
4.96164e-06
-1.41524e-08
4.95427e-06
1.8466e-08
4.95619e-06
-2.98472e-09
4.94952e-06
2.83932e-08
4.95089e-06
1.08467e-08
4.94718e-06
3.82741e-08
4.94757e-06
2.72512e-08
4.94936e-06
5.18751e-08
4.94722e-06
5.29291e-08
4.91873e-06
9.84381e-08
4.87523e-06
1.13163e-07
1.30852e-07
4.83868e-06
5.19563e-06
-8.73752e-08
5.20692e-06
-3.44386e-08
5.2026e-06
-1.82995e-08
5.20675e-06
-6.64915e-09
5.19811e-06
-8.40226e-09
5.20479e-06
-2.51986e-08
5.19541e-06
-1.57465e-08
5.2062e-06
-2.88933e-08
5.19366e-06
-1.18126e-08
5.20837e-06
-2.62166e-08
5.19162e-06
-7.07445e-09
5.21008e-06
-2.35215e-08
5.18938e-06
-3.1735e-09
5.21148e-06
-2.15734e-08
5.18769e-06
5.60114e-10
5.21155e-06
-1.89876e-08
5.18704e-06
3.72049e-09
5.21077e-06
-1.32997e-08
5.18678e-06
9.83608e-09
5.20949e-06
-4.24798e-09
5.1869e-06
1.96024e-08
5.20584e-06
9.45822e-09
5.18246e-06
3.42229e-08
5.19304e-06
2.76975e-08
5.17283e-06
4.74577e-08
5.18449e-06
4.02159e-08
5.19034e-06
4.70773e-08
5.26252e-06
2.6263e-08
5.34949e-06
2.61916e-08
2.69318e-08
5.45341e-06
5.44552e-06
-7.77018e-08
5.45209e-06
-4.10093e-08
5.45592e-06
-2.2135e-08
5.4501e-06
-8.22921e-10
5.45549e-06
-1.37954e-08
5.44605e-06
-1.57578e-08
5.45247e-06
-2.2171e-08
5.44568e-06
-2.20978e-08
5.45191e-06
-1.80491e-08
5.44686e-06
-2.11639e-08
5.45171e-06
-1.19254e-08
5.4477e-06
-1.95124e-08
5.4508e-06
-6.27176e-09
5.44674e-06
-1.75089e-08
5.44879e-06
-1.49626e-09
5.44439e-06
-1.45831e-08
5.44493e-06
3.18075e-09
5.4418e-06
-1.01744e-08
5.44261e-06
9.02962e-09
5.43884e-06
-4.77638e-10
5.43957e-06
1.88665e-08
5.43541e-06
1.36203e-08
5.43572e-06
3.39189e-08
5.43368e-06
2.97321e-08
5.43488e-06
4.62633e-08
5.43415e-06
4.09467e-08
5.42353e-06
5.76901e-08
5.39724e-06
5.25575e-08
5.35872e-06
6.47099e-08
6.48326e-08
5.32082e-06
5.70687e-06
-6.86183e-08
5.71269e-06
-4.68264e-08
5.71491e-06
-2.43581e-08
5.71522e-06
-1.12511e-09
5.71493e-06
-1.35122e-08
5.71048e-06
-1.13e-08
5.71085e-06
-2.25429e-08
5.70703e-06
-1.82832e-08
5.71142e-06
-2.24393e-08
5.70762e-06
-1.73569e-08
5.71325e-06
-1.75593e-08
5.70721e-06
-1.34711e-08
5.71349e-06
-1.25515e-08
5.70598e-06
-9.99819e-09
5.71335e-06
-8.87235e-09
5.7048e-06
-6.02881e-09
5.7126e-06
-4.61848e-09
5.70249e-06
-6.90759e-11
5.70808e-06
3.44521e-09
5.69853e-06
9.06842e-09
5.7028e-06
1.46038e-08
5.6957e-06
2.07184e-08
5.70071e-06
2.89034e-08
5.69366e-06
3.67879e-08
5.69392e-06
4.60021e-08
5.68144e-06
5.34247e-08
5.67653e-06
6.25965e-08
5.65939e-06
6.97013e-08
5.64445e-06
7.9647e-08
8.77375e-08
5.62155e-06
5.981e-06
-6.04283e-08
5.98133e-06
-4.71491e-08
5.98883e-06
-3.18582e-08
5.98762e-06
7.9241e-11
5.9901e-06
-1.59932e-08
5.98156e-06
-2.76266e-09
5.98747e-06
-2.84439e-08
5.97877e-06
-9.58273e-09
5.98807e-06
-3.17437e-08
5.97911e-06
-8.40092e-09
5.98844e-06
-2.68845e-08
5.97944e-06
-4.46944e-09
5.98743e-06
-2.05404e-08
5.97901e-06
-1.58246e-09
5.984e-06
-1.38583e-08
5.97632e-06
1.64616e-09
5.97889e-06
-7.1855e-09
5.97309e-06
5.73013e-09
5.97575e-06
7.84436e-10
5.97086e-06
1.39599e-08
5.9737e-06
1.17643e-08
5.96903e-06
2.53843e-08
5.97254e-06
2.53956e-08
5.96746e-06
4.18701e-08
5.96695e-06
4.65051e-08
5.95504e-06
6.53354e-08
5.94888e-06
6.87637e-08
5.93197e-06
8.66099e-08
5.91929e-06
9.23295e-08
1.02735e-07
5.90429e-06
6.26821e-06
-5.31486e-08
6.26547e-06
-4.44092e-08
6.27623e-06
-4.26241e-08
6.27067e-06
5.64647e-09
6.27864e-06
-2.39646e-08
6.26609e-06
9.7862e-09
6.27559e-06
-3.79451e-08
6.26436e-06
1.65235e-09
6.27577e-06
-4.31581e-08
6.26476e-06
2.6053e-09
6.27581e-06
-3.79316e-08
6.26491e-06
6.42746e-09
6.27492e-06
-3.05466e-08
6.26437e-06
8.96666e-09
6.27333e-06
-2.28162e-08
6.26245e-06
1.25215e-08
6.26931e-06
-1.40365e-08
6.25855e-06
1.64881e-08
6.26384e-06
-4.51276e-09
6.25644e-06
2.13639e-08
6.25982e-06
8.3892e-09
6.25338e-06
3.18177e-08
6.25529e-06
2.34887e-08
6.25296e-06
4.41942e-08
6.26055e-06
3.89218e-08
6.25648e-06
6.94071e-08
6.24754e-06
7.77027e-08
6.21281e-06
1.21337e-07
6.16415e-06
1.40994e-07
1.29434e-07
6.13745e-06
6.56771e-06
-4.53846e-08
6.57726e-06
-5.39669e-08
6.56165e-06
-2.70129e-08
6.58072e-06
-1.34246e-08
6.56127e-06
-4.50652e-09
6.58174e-06
-1.06878e-08
6.55975e-06
-1.59565e-08
6.58152e-06
-2.01192e-08
6.55961e-06
-2.12446e-08
6.58164e-06
-1.94285e-08
6.55964e-06
-1.59304e-08
6.581e-06
-1.49315e-08
6.55972e-06
-9.26161e-09
6.57988e-06
-1.12014e-08
6.56012e-06
-3.05018e-09
6.57819e-06
-5.54889e-09
6.56047e-06
3.67824e-09
6.57507e-06
1.88589e-09
6.5583e-06
1.22578e-08
6.56698e-06
1.26833e-08
6.55457e-06
2.08048e-08
6.56132e-06
2.50695e-08
6.54818e-06
3.66269e-08
6.55041e-06
4.19599e-08
6.54176e-06
4.75763e-08
6.56937e-06
4.17923e-08
6.60372e-06
4.33522e-08
6.68527e-06
3.97898e-08
6.7854e-06
4.08673e-08
5.86226e-08
6.85621e-06
6.88451e-06
-4.01037e-08
6.87788e-06
-4.7336e-08
6.8904e-06
-3.95372e-08
6.88231e-06
-5.33509e-09
6.89369e-06
-1.5882e-08
6.88285e-06
1.47544e-10
6.88976e-06
-2.28665e-08
6.88141e-06
-1.1761e-08
6.88724e-06
-2.70765e-08
6.88079e-06
-1.29852e-08
6.88694e-06
-2.20806e-08
6.88019e-06
-8.18117e-09
6.88549e-06
-1.45573e-08
6.87688e-06
-2.58863e-09
6.88114e-06
-7.3103e-09
6.87317e-06
2.41628e-09
6.87745e-06
-6.03074e-10
6.87077e-06
8.57335e-09
6.87428e-06
8.74018e-09
6.86931e-06
1.76573e-08
6.87187e-06
1.82399e-08
6.87234e-06
2.45992e-08
6.88597e-06
2.29964e-08
6.89867e-06
2.92648e-08
6.90992e-06
3.63283e-08
6.89647e-06
5.52388e-08
6.86918e-06
7.06462e-08
6.81668e-06
9.22846e-08
6.75056e-06
1.06989e-07
8.186e-08
6.72732e-06
7.21241e-06
-3.33767e-08
7.22454e-06
-5.9468e-08
7.2022e-06
-1.71917e-08
7.22652e-06
-2.96598e-08
7.20261e-06
8.02563e-09
7.2282e-06
-2.54432e-08
7.20209e-06
3.24378e-09
7.22736e-06
-3.70243e-08
7.20333e-06
-3.05044e-09
7.22576e-06
-3.54146e-08
7.20455e-06
-8.68538e-10
7.22387e-06
-2.74992e-08
7.20565e-06
3.65604e-09
7.22189e-06
-1.88213e-08
7.2061e-06
8.47785e-09
7.21733e-06
-8.82018e-09
7.20209e-06
1.464e-08
7.20971e-06
9.57694e-10
7.19818e-06
2.02677e-08
7.20502e-06
1.08164e-08
7.19699e-06
2.6268e-08
7.20193e-06
1.96576e-08
7.18977e-06
3.51561e-08
7.1902e-06
2.88408e-08
7.19035e-06
3.61747e-08
7.22184e-06
2.37461e-08
7.26889e-06
2.35956e-08
7.35249e-06