/*--------------------------------*- C++ -*----------------------------------*\
| =========                 |                                                 |
| \\      /  F ield         | OpenFOAM: The Open Source CFD Toolbox           |
|  \\    /   O peration     | Version:  v2006                                 |
|   \\  /    A nd           | Website:  www.openfoam.com                      |
|    \\/     M anipulation  |                                                 |
\*---------------------------------------------------------------------------*/
FoamFile
{
    version     2.0;
    format      ascii;
    class       volVectorField;
    location    "1.5";
    object      U;
}
// * * * * * * * * * * * * * * * * * * * * * * * * * * * * * * * * * * * * * //

dimensions      [0 1 -1 0 0 0 0];


internalField   nonuniform List<vector> 
26400
(
(0.909072 -0.00479619 0)
(1.09185 0.00444423 0)
(0.913032 -0.00422455 0)
(1.09154 0.00387192 0)
(0.919472 -0.00389068 0)
(1.09212 0.00332419 0)
(0.925076 -0.00347388 0)
(1.09265 0.00284342 0)
(0.930008 -0.00311706 0)
(1.09313 0.00244257 0)
(0.93433 -0.00282524 0)
(1.09356 0.00209277 0)
(0.93795 -0.00255951 0)
(1.09407 0.00175918 0)
(0.940829 -0.00231815 0)
(1.09471 0.00143989 0)
(0.942919 -0.00210584 0)
(1.09552 0.00114809 0)
(0.94411 -0.00190992 0)
(1.0966 0.000894766 0)
(0.944233 -0.00171702 0)
(1.09805 0.000677943 0)
(0.94305 -0.0015024 0)
(1.09996 0.000485458 0)
(0.940228 -0.00121442 0)
(1.1023 0.000288972 0)
(0.935263 -0.000665246 0)
(1.10459 2.70156e-05 0)
(0.926811 0.0011128 0)
(1.10574 0.000368635 0)
(0.91596 -0.00483685 0)
(1.08604 0.00444694 0)
(0.922445 -0.00428988 0)
(1.08567 0.00386947 0)
(0.930522 -0.00396736 0)
(1.08559 0.00332333 0)
(0.937487 -0.00355411 0)
(1.08508 0.00284552 0)
(0.943754 -0.00319828 0)
(1.08416 0.00244783 0)
(0.949556 -0.00290665 0)
(1.08283 0.00210199 0)
(0.954948 -0.0026412 0)
(1.08112 0.00177305 0)
(0.96005 -0.00239895 0)
(1.07892 0.00145939 0)
(0.965014 -0.00218408 0)
(1.07608 0.00117581 0)
(0.970024 -0.0019835 0)
(1.07237 0.000935476 0)
(0.975314 -0.00178321 0)
(1.06745 0.00073998 0)
(0.98118 -0.00155258 0)
(1.06083 0.000576056 0)
(0.987936 -0.00122107 0)
(1.0518 0.000391998 0)
(0.995777 -0.000541787 0)
(1.03911 0.000218618 0)
(1.00438 0.00202373 0)
(1.0201 0.00151678 0)
(0.928132 -0.00488341 0)
(1.07426 0.00442406 0)
(0.937548 -0.00435208 0)
(1.0736 0.00384205 0)
(0.947712 -0.00403153 0)
(1.07246 0.00329769 0)
(0.95644 -0.00361144 0)
(1.07041 0.00281999 0)
(0.964296 -0.00324499 0)
(1.06763 0.00241839 0)
(0.971623 -0.00293891 0)
(1.06418 0.00206459 0)
(0.978546 -0.0026545 0)
(1.06016 0.00172242 0)
(0.985168 -0.00238522 0)
(1.05556 0.0013874 0)
(0.991553 -0.00213135 0)
(1.0504 0.00107072 0)
(0.997698 -0.0018743 0)
(1.04473 0.000780297 0)
(1.0035 -0.00159414 0)
(1.03868 0.000514085 0)
(1.00875 -0.00125986 0)
(1.03241 0.00026856 0)
(1.01303 -0.000824015 0)
(1.02615 4.62985e-05 0)
(1.01567 -0.000126448 0)
(1.01994 6.31286e-05 0)
(1.01547 0.00217041 0)
(1.01421 0.00376471 0)
(0.943433 -0.00491657 0)
(1.05836 0.00434919 0)
(0.954384 -0.0043864 0)
(1.05723 0.0037658 0)
(0.965619 -0.00405278 0)
(1.05519 0.00322061 0)
(0.975126 -0.0036125 0)
(1.05208 0.00273851 0)
(0.983386 -0.00322361 0)
(1.04831 0.00232675 0)
(0.990723 -0.00289219 0)
(1.0441 0.00195788 0)
(0.997231 -0.00257983 0)
(1.0397 0.00159728 0)
(1.00293 -0.00227953 0)
(1.03529 0.00124155 0)
(1.00778 -0.0019926 0)
(1.03104 0.00090445 0)
(1.01172 -0.00170262 0)
(1.02713 0.000598026 0)
(1.01463 -0.00139244 0)
(1.02365 0.000327021 0)
(1.01642 -0.00103762 0)
(1.02065 0.000101659 0)
(1.01696 -0.000582589 0)
(1.01798 -4.89192e-05 0)
(1.01608 0.000161375 0)
(1.01522 0.000242186 0)
(1.01343 0.00254489 0)
(1.01238 0.00594062 0)
(0.959196 -0.00492834 0)
(1.04141 0.00423434 0)
(0.969591 -0.00439086 0)
(1.03996 0.0036514 0)
(0.980147 -0.0040374 0)
(1.03766 0.00310459 0)
(0.98881 -0.00357337 0)
(1.03455 0.00262011 0)
(0.995892 -0.00316193 0)
(1.03117 0.00220287 0)
(1.00169 -0.00280906 0)
(1.02779 0.00182695 0)
(1.00634 -0.0024774 0)
(1.02468 0.00146081 0)
(1.0099 -0.00216017 0)
(1.02195 0.00110266 0)
(1.01244 -0.00185943 0)
(1.01967 0.000767962 0)
(1.01405 -0.00155903 0)
(1.01784 0.000470349 0)
(1.01481 -0.00124151 0)
(1.01634 0.000218652 0)
(1.01481 -0.000885101 0)
(1.015 2.53194e-05 0)
(1.01407 -0.000468723 0)
(1.01352 -9.00197e-06 0)
(1.01249 2.89994e-05 0)
(1.01148 0.0010993 0)
(1.00995 0.00165164 0)
(1.00922 0.008435 0)
(0.973043 -0.00491675 0)
(1.02634 0.00410591 0)
(0.981175 -0.00437104 0)
(1.02494 0.0035253 0)
(0.989636 -0.00399982 0)
(1.02306 0.00297859 0)
(0.996297 -0.003517 0)
(1.02078 0.00249762 0)
(1.00136 -0.0030899 0)
(1.01857 0.00208286 0)
(1.00515 -0.0027239 0)
(1.0166 0.00170867 0)
(1.00789 -0.00238175 0)
(1.015 0.0013456 0)
(1.00972 -0.00205558 0)
(1.01375 0.00099198 0)
(1.0108 -0.00174683 0)
(1.01279 0.000663283 0)
(1.01128 -0.00143892 0)
(1.01202 0.000374971 0)
(1.01127 -0.00111645 0)
(1.01129 0.000143659 0)
(1.01083 -0.00075929 0)
(1.01043 -1.46578e-05 0)
(1.00992 -0.000370759 0)
(1.0092 3.68109e-05 0)
(1.0084 0.000223788 0)
(1.00733 0.00106156 0)
(1.00628 0.00260535 0)
(1.00557 0.00619754 0)
(0.983619 -0.00488434 0)
(1.01488 0.00398555 0)
(0.988781 -0.0043344 0)
(1.01383 0.0034089 0)
(0.994672 -0.00395128 0)
(1.01267 0.00286331 0)
(0.999104 -0.00345629 0)
(1.01139 0.00238876 0)
(1.00225 -0.00301919 0)
(1.01029 0.00197864 0)
(1.00445 -0.00264411 0)
(1.00941 0.00160623 0)
(1.00593 -0.00229304 0)
(1.00877 0.00124333 0)
(1.00685 -0.00195616 0)
(1.0083 0.000887287 0)
(1.00732 -0.00163313 0)
(1.0079 0.000552662 0)
(1.00743 -0.00130657 0)
(1.00751 0.000256524 0)
(1.00725 -0.000962085 0)
(1.00701 1.94732e-05 0)
(1.00676 -0.000565512 0)
(1.00628 -0.000139104 0)
(1.00587 -0.000116899 0)
(1.00516 -0.000112095 0)
(1.00441 0.000768746 0)
(1.00347 0.000590177 0)
(1.00244 0.00409062 0)
(1.00203 0.00466461 0)
(0.990757 -0.00483601 0)
(1.00727 0.00388292 0)
(0.993196 -0.00428653 0)
(1.00663 0.00331023 0)
(0.996867 -0.00389673 0)
(1.00611 0.00276411 0)
(0.999511 -0.00339395 0)
(1.00555 0.00229426 0)
(1.00129 -0.00294933 0)
(1.00513 0.00188606 0)
(1.0025 -0.00256645 0)
(1.00481 0.00151223 0)
(1.00331 -0.00220739 0)
(1.0046 0.00114694 0)
(1.0038 -0.00186159 0)
(1.00442 0.000788241 0)
(1.00403 -0.00152898 0)
(1.00422 0.000452769 0)
(1.00402 -0.00119508 0)
(1.00395 0.000163242 0)
(1.00378 -0.000853701 0)
(1.00352 -5.21279e-05 0)
(1.00327 -0.000484009 0)
(1.00284 -0.000136109 0)
(1.00238 -0.000102439 0)
(1.00177 0.000132347 0)
(1.00097 0.00028544 0)
(1.00022 0.00185744 0)
(0.999263 0.00259468 0)
(0.99905 0.010205 0)
(0.995093 -0.00477622 0)
(1.00275 0.00379647 0)
(0.995552 -0.0042299 0)
(1.00243 0.00322608 0)
(0.997697 -0.00383636 0)
(1.0023 0.00267594 0)
(0.999169 -0.0033276 0)
(1.00211 0.00220681 0)
(1.00011 -0.0028755 0)
(1.00199 0.00179611 0)
(1.00077 -0.00248403 0)
(1.00188 0.00141666 0)
(1.00121 -0.00211578 0)
(1.00181 0.00104564 0)
(1.00148 -0.0017603 0)
(1.00172 0.000683062 0)
(1.00156 -0.00141936 0)
(1.00158 0.000349426 0)
(1.00148 -0.00108176 0)
(1.00133 7.20533e-05 0)
(1.00119 -0.000733468 0)
(1.00091 -0.000127337 0)
(1.00065 -0.000382737 0)
(1.00023 -0.000161518 0)
(0.999755 -5.28586e-06 0)
(0.99912 0.000184661 0)
(0.998436 0.000399591 0)
(0.997627 0.00203949 0)
(0.997225 0.00231897 0)
(0.996722 0.010016 0)
(0.997521 -0.00470768 0)
(1.00028 0.00371882 0)
(0.996764 -0.00416485 0)
(1.00014 0.00314863 0)
(0.998019 -0.00376881 0)
(1.00021 0.00259109 0)
(0.998815 -0.00325438 0)
(1.00017 0.00211909 0)
(0.999287 -0.00279375 0)
(1.00014 0.00170204 0)
(0.999622 -0.00239182 0)
(1.00009 0.00131289 0)
(0.999847 -0.00201159 0)
(1.00005 0.000931222 0)
(0.999959 -0.00164155 0)
(0.999973 0.000557715 0)
(0.999944 -0.00128411 0)
(0.999829 0.000215387 0)
(0.999787 -0.000929398 0)
(0.99957 -6.58666e-05 0)
(0.99945 -0.0005582 0)
(0.999133 -0.000268549 0)
(0.998875 -0.000170976 0)
(0.998424 -0.000315247 0)
(0.997961 0.000308986 0)
(0.997305 -0.000112203 0)
(0.996667 0.00137927 0)
(0.995865 0.000756977 0)
(0.995645 0.00391213 0)
(0.995321 0.00263199 0)
(0.998804 -0.00463168 0)
(0.998996 0.00364227 0)
(0.997387 -0.00409092 0)
(0.998944 0.00307095 0)
(0.998178 -0.00369297 0)
(0.999098 0.00250405 0)
(0.998611 -0.00317325 0)
(0.999111 0.00202814 0)
(0.99882 -0.00270459 0)
(0.999112 0.00160522 0)
(0.998968 -0.00229447 0)
(0.999064 0.0012099 0)
(0.999053 -0.00190801 0)
(0.999025 0.00082569 0)
(0.99906 -0.00153483 0)
(0.998945 0.000457093 0)
(0.998969 -0.00118103 0)
(0.998791 0.000131927 0)
(0.998755 -0.000839581 0)
(0.998516 -0.00011634 0)
(0.998374 -0.000509688 0)
(0.998059 -0.000250053 0)
(0.997765 -0.000171874 0)
(0.99733 -0.000210662 0)
(0.996825 0.000280284 0)
(0.996227 0.000129343 0)
(0.995508 0.00136297 0)
(0.994856 0.00100742 0)
(0.994314 0.00402493 0)
(0.994778 0.00164943 0)
(0.999457 -0.00454871 0)
(0.998355 0.00356105 0)
(0.997708 -0.00400716 0)
(0.998343 0.00298784 0)
(0.99827 -0.00360703 0)
(0.998538 0.0024095 0)
(0.998515 -0.00308093 0)
(0.99857 0.00192746 0)
(0.998583 -0.00260167 0)
(0.998577 0.00149514 0)
(0.998626 -0.00217918 0)
(0.998527 0.00108836 0)
(0.998628 -0.00177982 0)
(0.998481 0.000693498 0)
(0.998571 -0.00139396 0)
(0.99839 0.000318273 0)
(0.998434 -0.00102919 0)
(0.998223 -7.27234e-06 0)
(0.998186 -0.000677742 0)
(0.997931 -0.000250016 0)
(0.997781 -0.000348604 0)
(0.997453 -0.00035351 0)
(0.997154 -1.49545e-05 0)
(0.996705 -0.000273959 0)
(0.99621 0.000420595 0)
(0.995601 0.000207134 0)
(0.994917 0.00127548 0)
(0.99431 0.00164713 0)
(0.993788 0.00395036 0)
(0.994746 0.00610965 0)
(0.999777 -0.00445905 0)
(0.998049 0.00347206 0)
(0.99787 -0.00391323 0)
(0.998055 0.00289746 0)
(0.998322 -0.00351145 0)
(0.998275 0.00230747 0)
(0.998473 -0.00298022 0)
(0.998316 0.00182084 0)
(0.998468 -0.00249254 0)
(0.998326 0.00138286 0)
(0.998454 -0.00206316 0)
(0.998273 0.000972174 0)
(0.99841 -0.00166104 0)
(0.998222 0.000580235 0)
(0.998317 -0.00127973 0)
(0.998126 0.000219316 0)
(0.998154 -0.000930046 0)
(0.997953 -7.62256e-05 0)
(0.997887 -0.000612074 0)
(0.997651 -0.000264951 0)
(0.997468 -0.000329774 0)
(0.997162 -0.000288017 0)
(0.996832 -4.87024e-05 0)
(0.996405 -6.43947e-05 0)
(0.995895 0.00025921 0)
(0.995308 0.00062482 0)
(0.99466 0.000991546 0)
(0.994132 0.00243891 0)
(0.99386 0.00364524 0)
(0.994753 0.0102973 0)
(0.999931 -0.00436256 0)
(0.997912 0.00337292 0)
(0.997952 -0.00380764 0)
(0.997927 0.00279719 0)
(0.998352 -0.00340373 0)
(0.998163 0.00219385 0)
(0.998458 -0.00286644 0)
(0.998211 0.00170118 0)
(0.998416 -0.00236847 0)
(0.998222 0.00125584 0)
(0.998373 -0.00192974 0)
(0.998169 0.000838551 0)
(0.998306 -0.00152171 0)
(0.998116 0.000446181 0)
(0.998195 -0.00113998 0)
(0.998016 9.46443e-05 0)
(0.99802 -0.000798207 0)
(0.997837 -0.000179724 0)
(0.997747 -0.000504748 0)
(0.997528 -0.000326888 0)
(0.997328 -0.000247588 0)
(0.997031 -0.000305474 0)
(0.996701 2.89924e-05 0)
(0.996262 -4.58427e-05 0)
(0.995787 0.000454195 0)
(0.995184 0.000628826 0)
(0.994624 0.00148943 0)
(0.99413 0.00236687 0)
(0.99438 0.00398511 0)
(0.995069 0.00644004 0)
(1.00001 -0.00425921 0)
(0.997854 0.00326254 0)
(0.998 -0.00368992 0)
(0.997873 0.0026866 0)
(0.998375 -0.00328424 0)
(0.99812 0.00206946 0)
(0.998461 -0.00274226 0)
(0.998172 0.00157251 0)
(0.998402 -0.00223646 0)
(0.998186 0.00112311 0)
(0.998345 -0.00179244 0)
(0.998134 0.000704971 0)
(0.998264 -0.00138549 0)
(0.998083 0.000320715 0)
(0.998142 -0.00101376 0)
(0.997984 -8.09962e-06 0)
(0.99796 -0.000692384 0)
(0.997806 -0.000247338 0)
(0.997683 -0.000431721 0)
(0.997498 -0.000343808 0)
(0.997263 -0.000207512 0)
(0.997004 -0.000275321 0)
(0.996637 6.49567e-05 0)
(0.996255 -4.71457e-05 0)
(0.995739 0.000692502 0)
(0.995227 0.000568565 0)
(0.994642 0.00206313 0)
(0.994255 0.00226621 0)
(0.994196 0.00460079 0)
(0.995523 0.00286971 0)
(1.00005 -0.00414854 0)
(0.997828 0.00313942 0)
(0.998037 -0.00355859 0)
(0.997847 0.00256375 0)
(0.998401 -0.00315101 0)
(0.9981 0.00193145 0)
(0.998481 -0.00260461 0)
(0.998153 0.00142993 0)
(0.998416 -0.0020906 0)
(0.998165 0.000976824 0)
(0.998354 -0.00164293 0)
(0.998112 0.000560445 0)
(0.99827 -0.00124013 0)
(0.998059 0.000188857 0)
(0.998147 -0.00088694 0)
(0.997957 -0.000110735 0)
(0.997967 -0.000600672 0)
(0.997775 -0.000300511 0)
(0.997696 -0.000384123 0)
(0.997463 -0.000332342 0)
(0.997285 -0.000206148 0)
(0.99697 -0.000186323 0)
(0.996668 2.40093e-05 0)
(0.996243 0.000193407 0)
(0.995797 0.000536198 0)
(0.995269 0.00103012 0)
(0.994786 0.00181003 0)
(0.994407 0.00306822 0)
(0.994377 0.00481332 0)
(0.996185 0.00717955 0)
(1.00007 -0.00403105 0)
(0.997823 0.00300402 0)
(0.998062 -0.00341454 0)
(0.997839 0.00243091 0)
(0.99842 -0.00300702 0)
(0.998098 0.00178502 0)
(0.998497 -0.00246019 0)
(0.998152 0.00128366 0)
(0.998428 -0.00194399 0)
(0.998165 0.00083528 0)
(0.998363 -0.00150199 0)
(0.998113 0.000430483 0)
(0.998276 -0.00111582 0)
(0.998061 8.90107e-05 0)
(0.998152 -0.000801758 0)
(0.997959 -0.000161315 0)
(0.997972 -0.000577127 0)
(0.997778 -0.000277243 0)
(0.997706 -0.000424301 0)
(0.997467 -0.000229413 0)
(0.997303 -0.00030142 0)
(0.996979 -1.90998e-06 0)
(0.996705 -0.000131632 0)
(0.996266 0.000553265 0)
(0.99587 0.000286156 0)
(0.99535 0.00162884 0)
(0.994961 0.0014474 0)
(0.994673 0.00391468 0)
(0.994891 0.00490523 0)
(0.996402 0.0117264 0)
(1.00008 -0.00390488 0)
(0.997834 0.00285268 0)
(0.998078 -0.00325376 0)
(0.997849 0.00228237 0)
(0.998428 -0.00284579 0)
(0.998114 0.00162176 0)
(0.998504 -0.00229903 0)
(0.998172 0.00112107 0)
(0.998432 -0.00178135 0)
(0.998186 0.000679007 0)
(0.998364 -0.00134472 0)
(0.998136 0.000286701 0)
(0.998277 -0.000977867 0)
(0.998083 -2.30774e-05 0)
(0.998154 -0.000689582 0)
(0.997979 -0.000232549 0)
(0.997979 -0.000504836 0)
(0.997795 -0.000303968 0)
(0.997722 -0.000372747 0)
(0.997483 -0.00023921 0)
(0.99733 -0.000222933 0)
(0.996996 -3.92268e-05 0)
(0.996757 6.17667e-05 0)
(0.996303 0.00040341 0)
(0.995968 0.000729136 0)
(0.995443 0.00142425 0)
(0.995164 0.00223366 0)
(0.99498 0.00351179 0)
(0.995767 0.00496797 0)
(0.996824 0.00697529 0)
(1.00009 -0.00377133 0)
(0.997853 0.00268753 0)
(0.998094 -0.00307927 0)
(0.997866 0.00212146 0)
(0.998437 -0.00267312 0)
(0.99814 0.00144656 0)
(0.998512 -0.00212952 0)
(0.998203 0.000949133 0)
(0.998436 -0.00161474 0)
(0.998221 0.000517027 0)
(0.998363 -0.00119002 0)
(0.998174 0.000147982 0)
(0.998273 -0.000877509 0)
(0.998124 -0.000121149 0)
(0.998148 -0.000634841 0)
(0.998021 -0.000273299 0)
(0.997975 -0.000486667 0)
(0.997839 -0.00029853 0)
(0.99772 -0.000364167 0)
(0.997534 -0.000220114 0)
(0.997331 -0.000176797 0)
(0.997066 -6.42547e-05 0)
(0.996767 0.000232835 0)
(0.99641 0.000271075 0)
(0.996024 0.00112434 0)
(0.995635 0.00127188 0)
(0.995309 0.0029546 0)
(0.99519 0.00330434 0)
(0.995518 0.00513012 0)
(0.997357 0.00276129 0)
(1.0001 -0.00363533 0)
(0.997865 0.00251662 0)
(0.99812 -0.00289947 0)
(0.997872 0.00196481 0)
(0.99846 -0.00250351 0)
(0.99815 0.00128647 0)
(0.998539 -0.00197669 0)
(0.998213 0.000810045 0)
(0.998465 -0.00148317 0)
(0.998229 0.000411337 0)
(0.998395 -0.00109417 0)
(0.998178 9.68162e-05 0)
(0.998309 -0.000790761 0)
(0.998125 -0.000138431 0)
(0.99819 -0.000610411 0)
(0.998017 -0.000236855 0)
(0.998025 -0.000511361 0)
(0.997833 -0.000212021 0)
(0.997777 -0.000421758 0)
(0.997531 -8.11132e-05 0)
(0.997394 -0.000249603 0)
(0.997078 0.000152859 0)
(0.996846 8.44199e-05 0)
(0.996465 0.00063889 0)
(0.996162 0.000898642 0)
(0.995776 0.00180923 0)
(0.99555 0.00265937 0)
(0.995412 0.00425905 0)
(0.9957 0.00578909 0)
(0.998159 0.00769839 0)
(1.0001 -0.00347305 0)
(0.997891 0.0023009 0)
(0.998136 -0.00267307 0)
(0.99789 0.00174821 0)
(0.998469 -0.0022723 0)
(0.998173 0.00104726 0)
(0.998552 -0.00174532 0)
(0.998238 0.000569252 0)
(0.998478 -0.00125145 0)
(0.998253 0.000180141 0)
(0.998409 -0.000887435 0)
(0.998204 -0.000107944 0)
(0.998323 -0.000627741 0)
(0.998146 -0.000285833 0)
(0.998209 -0.000499187 0)
(0.998037 -0.000320334 0)
(0.998049 -0.000461077 0)
(0.997855 -0.000230915 0)
(0.997808 -0.000444945 0)
(0.99756 -1.5354e-05 0)
(0.997435 -0.000376557 0)
(0.997117 0.000419536 0)
(0.996912 -0.000138841 0)
(0.99654 0.00120509 0)
(0.996286 0.000551572 0)
(0.995943 0.00254911 0)
(0.995823 0.0021417 0)
(0.995801 0.0053055 0)
(0.996277 0.00625052 0)
(0.998056 0.0129856 0)
(1.00008 -0.0033433 0)
(0.997946 0.00213409 0)
(0.998132 -0.00249879 0)
(0.997937 0.00161524 0)
(0.998457 -0.00213114 0)
(0.998227 0.00093347 0)
(0.998543 -0.0016534 0)
(0.998294 0.000510463 0)
(0.99847 -0.0012197 0)
(0.998307 0.000196029 0)
(0.998403 -0.000936023 0)
(0.998252 -2.13158e-05 0)
(0.998323 -0.000796572 0)
(0.998191 -9.96443e-05 0)
(0.998218 -0.000728492 0)
(0.998075 -8.59557e-05 0)
(0.998067 -0.000692762 0)
(0.997889 -1.38269e-05 0)
(0.997838 -0.000615108 0)
(0.997591 0.000115166 0)
(0.997491 -0.000417812 0)
(0.997161 0.000408542 0)
(0.997007 7.62914e-05 0)
(0.99662 0.00104388 0)
(0.996435 0.00103613 0)
(0.996102 0.00236599 0)
(0.996121 0.00300005 0)
(0.996276 0.00476271 0)
(0.997366 0.00577677 0)
(0.998338 0.0070754 0)
(1.00006 -0.00314406 0)
(0.998011 0.00185656 0)
(0.998129 -0.00221199 0)
(0.997993 0.00133798 0)
(0.998446 -0.00183458 0)
(0.998293 0.000631001 0)
(0.998537 -0.00135553 0)
(0.998364 0.000209587 0)
(0.998463 -0.000911341 0)
(0.998376 -8.98938e-05 0)
(0.998396 -0.000606725 0)
(0.99832 -0.000310436 0)
(0.998318 -0.0004182 0)
(0.998259 -0.00043568 0)
(0.998212 -0.000272567 0)
(0.998146 -0.000523646 0)
(0.998059 -0.000105576 0)
(0.997969 -0.000580702 0)
(0.997828 0.000154282 0)
(0.99769 -0.000594972 0)
(0.997482 0.000533978 0)
(0.997292 -0.000492364 0)
(0.99702 0.00118369 0)
(0.9968 -6.45565e-05 0)
(0.996534 0.002318 0)
(0.996406 0.00123557 0)
(0.996314 0.00446859 0)
(0.996459 0.00354396 0)
(0.996778 0.00649594 0)
(0.998839 0.00252311 0)
(1.00006 -0.00301072 0)
(0.998059 0.00167697 0)
(0.998153 -0.00202956 0)
(0.998025 0.00120326 0)
(0.998465 -0.00169725 0)
(0.998327 0.000527409 0)
(0.998567 -0.00129272 0)
(0.998397 0.000172717 0)
(0.9985 -0.000950531 0)
(0.998403 -1.47448e-05 0)
(0.998438 -0.000792033 0)
(0.99834 -8.67489e-05 0)
(0.998367 -0.000768448 0)
(0.998275 -6.16374e-05 0)
(0.998265 -0.000791204 0)
(0.998163 3.28002e-05 0)
(0.998117 -0.0008314 0)
(0.99799 0.000213447 0)
(0.997893 -0.000848308 0)
(0.997715 0.000579264 0)
(0.997562 -0.000771459 0)
(0.997336 0.00112282 0)
(0.99713 -0.000466264 0)
(0.996897 0.00205435 0)
(0.996724 0.000384827 0)
(0.996607 0.00352463 0)
(0.996642 0.00200069 0)
(0.996808 0.00622194 0)
(0.997185 0.006082 0)
(0.999052 0.013599 0)
(1.00005 -0.00280732 0)
(0.998132 0.00139788 0)
(0.99816 -0.00174383 0)
(0.998083 0.000949162 0)
(0.998461 -0.00142668 0)
(0.998392 0.000280294 0)
(0.998571 -0.00106361 0)
(0.998463 -4.18408e-05 0)
(0.99851 -0.000768595 0)
(0.998461 -0.000178394 0)
(0.998454 -0.000660198 0)
(0.998391 -0.000213116 0)
(0.998389 -0.000631076 0)
(0.998321 -0.000213051 0)
(0.998295 -0.00059824 0)
(0.998202 -0.000216134 0)
(0.998159 -0.00053167 0)
(0.998023 -0.000187803 0)
(0.997962 -0.000407335 0)
(0.997753 -2.38152e-05 0)
(0.997657 -8.13959e-05 0)
(0.997388 0.000398812 0)
(0.997279 0.000492644 0)
(0.996997 0.00119397 0)
(0.996921 0.00156306 0)
(0.996774 0.00265678 0)
(0.997008 0.00344118 0)
(0.997441 0.00481594 0)
(0.99867 0.00580201 0)
(0.999258 0.00720025 0)
(1.00004 -0.00265632 0)
(0.998206 0.00117936 0)
(0.998181 -0.00152939 0)
(0.998142 0.000781242 0)
(0.998468 -0.00125045 0)
(0.998461 0.000146836 0)
(0.998585 -0.000924656 0)
(0.998536 -0.000127397 0)
(0.998525 -0.000664113 0)
(0.998533 -0.000226357 0)
(0.998468 -0.000553766 0)
(0.998465 -0.000275521 0)
(0.998397 -0.000464275 0)
(0.998403 -0.0003397 0)
(0.998293 -0.00028522 0)
(0.998295 -0.000456229 0)
(0.998148 -3.02442e-05 0)
(0.998132 -0.000589873 0)
(0.997945 0.000363999 0)
(0.997889 -0.000719054 0)
(0.99766 0.000934344 0)
(0.997558 -0.000668263 0)
(0.997308 0.00177676 0)
(0.997222 -0.00021862 0)
(0.997062 0.00309166 0)
(0.997124 0.00121577 0)
(0.997177 0.00536186 0)
(0.99746 0.00335147 0)
(0.997803 0.00647924 0)
(0.999775 0.00091894 0)
(1.00009 -0.00242021 0)
(0.998224 0.000860766 0)
(0.998267 -0.00122569 0)
(0.998134 0.000505213 0)
(0.998544 -0.00098728 0)
(0.998455 -0.000100131 0)
(0.998674 -0.00075197 0)
(0.998529 -0.000282315 0)
(0.998622 -0.000596465 0)
(0.998519 -0.000255208 0)
(0.998567 -0.000636598 0)
(0.99845 -0.000158287 0)
(0.998497 -0.000759049 0)
(0.998395 -1.29936e-05 0)
(0.998393 -0.000918815 0)
(0.998293 0.000235599 0)
(0.998248 -0.00105917 0)
(0.998144 0.000559712 0)
(0.998043 -0.00111131 0)
(0.997917 0.000962372 0)
(0.997757 -0.000983868 0)
(0.997623 0.0014843 0)
(0.997447 -0.000489776 0)
(0.997357 0.00231606 0)
(0.997299 0.000508657 0)
(0.997391 0.00373178 0)
(0.997579 0.00249061 0)
(0.997835 0.00688921 0)
(0.998106 0.00734406 0)
(0.999898 0.0135386 0)
(1.0001 -0.00232186 0)
(0.998291 0.000726783 0)
(0.998313 -0.00109595 0)
(0.99817 0.00045292 0)
(0.998577 -0.000926721 0)
(0.998492 -0.000118947 0)
(0.998723 -0.000797487 0)
(0.998564 -0.000237991 0)
(0.998682 -0.000685876 0)
(0.998543 -0.000179735 0)
(0.998634 -0.000722264 0)
(0.998464 -9.07058e-05 0)
(0.998571 -0.000813872 0)
(0.998394 3.98315e-05 0)
(0.998484 -0.000943871 0)
(0.998285 0.000286281 0)
(0.998358 -0.00107422 0)
(0.99813 0.000626062 0)
(0.998175 -0.00115081 0)
(0.997916 0.00110211 0)
(0.997923 -0.00103976 0)
(0.997657 0.00177155 0)
(0.997643 -0.000593616 0)
(0.997442 0.0027145 0)
(0.997544 0.000316441 0)
(0.997609 0.00396449 0)
(0.998132 0.00191717 0)
(0.998786 0.00660014 0)
(0.999794 0.00668677 0)
(0.999323 0.0134887 0)
(1.00005 -0.00204427 0)
(0.998427 0.000340877 0)
(0.998312 -0.000699785 0)
(0.998272 0.000115131 0)
(0.99856 -0.00049769 0)
(0.998595 -0.000452534 0)
(0.998722 -0.000383692 0)
(0.998669 -0.000612387 0)
(0.998687 -0.000212082 0)
(0.998645 -0.000671526 0)
(0.998638 -8.82195e-05 0)
(0.998568 -0.000779582 0)
(0.998576 6.67948e-05 0)
(0.998503 -0.000916113 0)
(0.998493 0.000297361 0)
(0.998393 -0.00106063 0)
(0.998371 0.000554269 0)
(0.998242 -0.00112148 0)
(0.998202 0.000876891 0)
(0.998038 -0.00102839 0)
(0.99797 0.00130734 0)
(0.997802 -0.000681059 0)
(0.997742 0.00196168 0)
(0.997639 9.70243e-05 0)
(0.997699 0.00303866 0)
(0.997858 0.00121543 0)
(0.998388 0.00409882 0)
(0.99921 0.00166541 0)
(1.00026 0.00348659 0)
(0.999813 0.000107949 0)
(1.00003 -0.00191077 0)
(0.998555 0.000161378 0)
(0.998342 -0.000679249 0)
(0.99836 0.000106951 0)
(0.998576 -0.00066284 0)
(0.998677 -0.000304398 0)
(0.998754 -0.000664784 0)
(0.998756 -0.000363493 0)
(0.998723 -0.00055501 0)
(0.99873 -0.000363777 0)
(0.998669 -0.000465093 0)
(0.998656 -0.000430925 0)
(0.998602 -0.000342919 0)
(0.998597 -0.000540251 0)
(0.998512 -0.00016763 0)
(0.998497 -0.000675179 0)
(0.998395 8.47049e-05 0)
(0.998359 -0.000715583 0)
(0.998239 0.000430737 0)
(0.998172 -0.00058341 0)
(0.998039 0.000922992 0)
(0.99797 -0.000139188 0)
(0.997864 0.00166968 0)
(0.997866 0.000719788 0)
(0.997871 0.00272676 0)
(0.998051 0.00183415 0)
(0.998298 0.00345273 0)
(0.99875 0.00154424 0)
(0.999339 0.00187646 0)
(1.00155 0.000163771 0)
(1.00005 -0.00175602 0)
(0.998633 -5.38554e-05 0)
(0.998425 -0.0004802 0)
(0.998392 -2.37773e-05 0)
(0.998645 -0.000277457 0)
(0.998713 -0.000539238 0)
(0.998838 -0.000355562 0)
(0.998797 -0.000618568 0)
(0.998809 -0.000271492 0)
(0.998771 -0.000603953 0)
(0.998753 -0.000218166 0)
(0.998699 -0.000590961 0)
(0.998684 -0.000175472 0)
(0.998644 -0.000564862 0)
(0.998593 -0.00012911 0)
(0.998552 -0.000504854 0)
(0.998481 -7.44453e-05 0)
(0.998426 -0.0003712 0)
(0.998338 8.25124e-05 0)
(0.998261 -8.52333e-05 0)
(0.99817 0.000460201 0)
(0.998096 0.000458559 0)
(0.998045 0.00115162 0)
(0.99803 0.00129054 0)
(0.998086 0.00204376 0)
(0.998188 0.00237905 0)
(0.998401 0.00319635 0)
(0.998884 0.00384932 0)
(1 0.00489973 0)
(1.00378 0.00610769 0)
(1.00005 -0.00145173 0)
(0.998756 -0.000378823 0)
(0.998492 -0.000285994 0)
(0.998484 -0.000159605 0)
(0.998677 -0.000278788 0)
(0.998777 -0.000431991 0)
(0.998893 -0.000509056 0)
(0.998872 -0.000399903 0)
(0.99887 -0.000601586 0)
(0.998845 -0.000226546 0)
(0.998816 -0.000723029 0)
(0.998771 -1.65181e-05 0)
(0.99875 -0.000877891 0)
(0.998714 0.000207935 0)
(0.998664 -0.00102722 0)
(0.998617 0.000478348 0)
(0.99856 -0.00110544 0)
(0.998501 0.000770985 0)
(0.998434 -0.000990038 0)
(0.998365 0.00116723 0)
(0.998294 -0.00057592 0)
(0.998246 0.00175791 0)
(0.998198 0.000141385 0)
(0.998216 0.00247731 0)
(0.998294 0.000995461 0)
(0.998509 0.00349861 0)
(0.998876 0.00249657 0)
(0.999428 0.0063643 0)
(1.00021 0.00741744 0)
(1.00286 0.0124408 0)
(1.00002 -0.00157463 0)
(0.998876 -0.000266919 0)
(0.998559 -0.000552723 0)
(0.998543 0.00013106 0)
(0.998738 -0.000473372 0)
(0.99884 -0.000221112 0)
(0.998962 -0.000660051 0)
(0.998933 -0.000303525 0)
(0.998953 -0.000666154 0)
(0.998899 -0.000254467 0)
(0.998908 -0.000662048 0)
(0.998816 -0.000198777 0)
(0.99885 -0.000668944 0)
(0.998755 -0.00016027 0)
(0.998776 -0.000658231 0)
(0.998667 -9.59917e-05 0)
(0.998679 -0.000562078 0)
(0.998571 8.06127e-05 0)
(0.998568 -0.000268218 0)
(0.998469 0.000455553 0)
(0.998456 0.000273498 0)
(0.998383 0.00107542 0)
(0.998381 0.00103657 0)
(0.998371 0.00192043 0)
(0.998531 0.00202147 0)
(0.998749 0.0029305 0)
(0.999477 0.00309113 0)
(1.00065 0.00383086 0)
(1.00227 0.0039434 0)
(1.00293 0.00509385 0)
(0.999988 -0.000942981 0)
(0.999044 -0.000945986 0)
(0.998618 1.44929e-05 0)
(0.998693 -0.00046771 0)
(0.998735 0.000254108 0)
(0.998957 -0.00088821 0)
(0.998979 0.000109078 0)
(0.999067 -0.00111623 0)
(0.998974 0.000223818 0)
(0.999037 -0.00119636 0)
(0.998925 0.000395921 0)
(0.998958 -0.0012709 0)
(0.998861 0.000573819 0)
(0.998899 -0.00134789 0)
(0.998784 0.000757974 0)
(0.998813 -0.00137711 0)
(0.998707 0.000941734 0)
(0.998734 -0.00125734 0)
(0.998631 0.00119751 0)
(0.998656 -0.00091556 0)
(0.998563 0.00166036 0)
(0.998602 -0.000259178 0)
(0.99855 0.00242341 0)
(0.998652 0.000797031 0)
(0.998725 0.00350618 0)
(0.998995 0.00183325 0)
(0.999292 0.00412929 0)
(0.999824 0.00131522 0)
(1.00074 0.00210444 0)
(1.0041 -0.000461622 0)
(1.00002 -0.00147624 0)
(0.999107 -0.000247215 0)
(0.998756 -0.000831524 0)
(0.998713 0.000487081 0)
(0.998847 -0.000879439 0)
(0.998974 0.000352277 0)
(0.999086 -0.00114627 0)
(0.999099 0.000231243 0)
(0.99909 -0.00118365 0)
(0.999077 0.000244175 0)
(0.999042 -0.00112235 0)
(0.999001 0.000294576 0)
(0.998978 -0.00103228 0)
(0.998948 0.000355033 0)
(0.998907 -0.000928773 0)
(0.998868 0.000444191 0)
(0.998834 -0.000794363 0)
(0.998795 0.000599491 0)
(0.998772 -0.000508699 0)
(0.998751 0.000935417 0)
(0.998744 1.25076e-05 0)
(0.99876 0.00155588 0)
(0.998796 0.000865 0)
(0.998866 0.00253066 0)
(0.99897 0.00201765 0)
(0.99913 0.00361926 0)
(0.99941 0.00302177 0)
(1.00012 0.00441994 0)
(1.00183 0.00446901 0)
(1.00624 0.0076853 0)
(1.00003 -0.000560218 0)
(0.999212 -0.00133553 0)
(0.998881 2.40107e-05 0)
(0.998797 -0.000567914 0)
(0.998914 0.00045051 0)
(0.999036 -0.00084631 0)
(0.999158 0.000278686 0)
(0.999172 -0.00106474 0)
(0.999169 0.000224839 0)
(0.999157 -0.00110906 0)
(0.999125 0.000280993 0)
(0.999084 -0.00104584 0)
(0.999062 0.000360087 0)
(0.999031 -0.000961179 0)
(0.998991 0.000427389 0)
(0.998954 -0.000847299 0)
(0.998928 0.000522599 0)
(0.998912 -0.000638963 0)
(0.998898 0.000787515 0)
(0.998902 -0.000236517 0)
(0.998911 0.00128708 0)
(0.998955 0.000459577 0)
(0.999018 0.00204734 0)
(0.999126 0.001426 0)
(0.999263 0.0031404 0)
(0.999463 0.00293425 0)
(0.99977 0.00504294 0)
(1.00051 0.00527131 0)
(1.00225 0.00680766 0)
(1.00674 0.00521904 0)
(1.00003 -0.00114491 0)
(0.99932 -0.000219395 0)
(0.999006 -0.00112895 0)
(0.998913 0.00058586 0)
(0.998987 -0.00101525 0)
(0.99911 0.000743699 0)
(0.999226 -0.00144475 0)
(0.999248 0.000629311 0)
(0.999249 -0.00168975 0)
(0.999243 0.000692693 0)
(0.999214 -0.00167953 0)
(0.999174 0.000816109 0)
(0.999153 -0.00156073 0)
(0.999122 0.000893277 0)
(0.999086 -0.00138075 0)
(0.999051 0.000993757 0)
(0.999034 -0.00110916 0)
(0.99902 0.00116289 0)
(0.999021 -0.000747723 0)
(0.999047 0.00144632 0)
(0.999082 -0.000202668 0)
(0.999148 0.00204708 0)
(0.999236 0.000639578 0)
(0.99939 0.00292948 0)
(0.99963 0.00172322 0)
(0.999993 0.00427893 0)
(1.00044 0.00400111 0)
(1.001 0.00821287 0)
(1.0019 0.00962302 0)
(1.0052 0.013739 0)
(0.999957 -0.000625891 0)
(0.999412 -0.00104124 0)
(0.999037 -0.000351604 0)
(0.998996 -0.000335727 0)
(0.999016 2.34413e-06 0)
(0.99916 -0.000291116 0)
(0.99924 -0.000256828 0)
(0.999307 -0.000550502 0)
(0.999287 -0.000455043 0)
(0.99932 -0.000556289 0)
(0.999263 -0.00041001 0)
(0.999259 -0.00044418 0)
(0.999201 -0.000302035 0)
(0.999215 -0.000337402 0)
(0.999142 -0.00016574 0)
(0.999157 -0.000192861 0)
(0.999103 7.01843e-05 0)
(0.999141 6.22564e-05 0)
(0.99911 0.000429247 0)
(0.999186 0.000473703 0)
(0.999228 0.000935043 0)
(0.999344 0.00110836 0)
(0.999449 0.00175728 0)
(0.999622 0.00217832 0)
(0.999897 0.00296734 0)
(1.00046 0.00329664 0)
(1.00151 0.00383428 0)
(1.00301 0.00390188 0)
(1.00481 0.00422316 0)
(1.00451 0.00364837 0)
(0.999872 -0.000527928 0)
(0.999673 -0.00089433 0)
(0.999102 -0.000495234 0)
(0.999264 -0.000261412 0)
(0.999019 -0.000110915 0)
(0.999373 -0.000230589 0)
(0.999228 -0.000302799 0)
(0.999504 -0.000452424 0)
(0.999295 -0.000420997 0)
(0.999524 -0.000507323 0)
(0.99929 -0.000331109 0)
(0.999456 -0.000447767 0)
(0.999238 -0.000174104 0)
(0.999403 -0.00035113 0)
(0.99919 4.89964e-06 0)
(0.99935 -0.000195382 0)
(0.999176 0.000214618 0)
(0.99935 5.88116e-05 0)
(0.999218 0.00053123 0)
(0.999421 0.000531293 0)
(0.999365 0.00101631 0)
(0.999633 0.00108774 0)
(0.999695 0.00161316 0)
(1.00004 0.001768 0)
(1.00015 0.00238949 0)
(1.00053 0.00274924 0)
(1.00076 0.00374887 0)
(1.00126 0.0043736 0)
(1.00169 0.00545075 0)
(1.00474 0.0059572 0)
(0.99994 -0.000886755 0)
(0.999575 -0.000372987 0)
(0.99924 -0.000924962 0)
(0.999199 0.000157251 0)
(0.999153 -0.000607971 0)
(0.999288 0.000269265 0)
(0.999344 -0.000806014 0)
(0.999443 1.38298e-05 0)
(0.999416 -0.000988496 0)
(0.999488 -5.35985e-05 0)
(0.999412 -0.000924214 0)
(0.999442 4.31505e-05 0)
(0.99936 -0.00074915 0)
(0.999406 0.000186437 0)
(0.999316 -0.00053085 0)
(0.99936 0.00039423 0)
(0.999306 -0.000257555 0)