/*--------------------------------*- C++ -*----------------------------------*\
| =========                 |                                                 |
| \\      /  F ield         | OpenFOAM: The Open Source CFD Toolbox           |
|  \\    /   O peration     | Version:  v2006                                 |
|   \\  /    A nd           | Website:  www.openfoam.com                      |
|    \\/     M anipulation  |                                                 |
\*---------------------------------------------------------------------------*/
FoamFile
{
    version     2.0;
    format      ascii;
    class       volScalarField;
    location    "0.2";
    object      p;
}
// * * * * * * * * * * * * * * * * * * * * * * * * * * * * * * * * * * * * * //

dimensions      [0 2 -2 0 0 0 0];


internalField   nonuniform List<scalar> 
26400
(
1.78302e-10
0.00141081
0.00138114
0.0014878
0.00122623
0.00122102
0.00112513
0.0016821
0.00117489
0.00125693
0.00164069
0.00190477
0.00182964
0.00180011
0.00167532
0.00206309
0.00203923
0.00230616
0.00202692
0.00203314
0.00214682
0.00249324
0.00260155
0.00334213
0.00362086
0.00402753
0.00449322
0.00570762
0.007214
0.0103938
4.60338e-07
0.00141051
0.00138167
0.00148721
0.00122748
0.00122147
0.00112626
0.00167961
0.00117455
0.00125612
0.00164122
0.00190326
0.00183411
0.00180108
0.00167508
0.00206215
0.00204298
0.00230095
0.00203324
0.00202179
0.00215367
0.00249258
0.00260518
0.0033332
0.00363106
0.00401499
0.00450254
0.0056393
0.007283
0.00966093
1.39998e-06
0.00140975
0.00138254
0.00148699
0.0012292
0.00122197
0.00112797
0.00167485
0.00117498
0.00125524
0.00164172
0.0019033
0.00183818
0.00180278
0.00167759
0.00205951
0.00204656
0.00229235
0.00204004
0.00201109
0.00216189
0.00249423
0.00260997
0.0033382
0.0036372
0.00400592
0.00450446
0.00557955
0.00717907
0.00898078
3.11781e-06
0.00140873
0.00138358
0.00148772
0.00123052
0.00122262
0.00113065
0.00166825
0.00117632
0.00125498
0.00164127
0.00190525
0.00184021
0.00180622
0.00168274
0.00205456
0.00205015
0.00228151
0.00204795
0.00199945
0.00217052
0.00249683
0.00261516
0.00333275
0.00364158
0.00399518
0.00449922
0.0054998
0.00698788
0.00841928
5.98096e-06
0.00140736
0.00138479
0.00148926
0.00123123
0.00122345
0.00113467
0.00166003
0.00117851
0.00125501
0.00163972
0.00190838
0.00184088
0.0018105
0.00168943
0.00204842
0.00205401
0.00226935
0.00205662
0.00198708
0.00217939
0.0024999
0.00261845
0.00332972
0.00364211
0.00398703
0.00447991
0.00542533
0.00665156
0.00798976
1.00757e-05
0.00140551
0.00138613
0.00149134
0.00123135
0.00122424
0.00113992
0.00165067
0.0011815
0.00125494
0.00163743
0.00191198
0.0018409
0.00181444
0.00169714
0.0020419
0.00205796
0.00225703
0.00206554
0.00197495
0.0021878
0.00250321
0.00262065
0.00332938
0.00363783
0.00398021
0.00444698
0.00535767
0.0062951
0.00747449
1.52233e-05
0.00140315
0.00138761
0.0014937
0.001231
0.00122479
0.00114613
0.00164089
0.00118515
0.00125459
0.00163484
0.0019154
0.00184093
0.0018175
0.00170559
0.00203533
0.00206221
0.00224492
0.0020749
0.00196227
0.00219638
0.00250459
0.00262391
0.00332596
0.00363533
0.00396214
0.00441271
0.00520228
0.00621262
0.00696711
2.11362e-05
0.00140035
0.00138921
0.00149613
0.0012304
0.00122503
0.00115305
0.00163118
0.00118924
0.00125393
0.00163224
0.00191832
0.00184147
0.00181957
0.00171459
0.0020289
0.00206674
0.00223329
0.00208431
0.00194962
0.00220447
0.00250556
0.00262573
0.00332461
0.00362623
0.00394721
0.0043615
0.00501041
0.00594369
0.00644437
2.75549e-05
0.0013972
0.00139096
0.00149851
0.00122982
0.00122495
0.00116052
0.00162174
0.00119358
0.00125299
0.00162982
0.00192068
0.00184279
0.0018207
0.00172407
0.00202273
0.00207133
0.00222254
0.00209046
0.0019383
0.00221054
0.00250911
0.0026226
0.00333422
0.00360466
0.00394661
0.00428675
0.00494086
0.00529799
0.00592356
3.43106e-05
0.00139382
0.00139286
0.00150082
0.00122947
0.00122454
0.00116842
0.00161254
0.001198
0.00125175
0.00162779
0.0019224
0.00184511
0.00182086
0.00173407
0.00201662
0.0020762
0.00221218
0.00209818
0.00192658
0.00221652
0.00251064
0.00262137
0.0033334
0.00359164
0.00392145
0.00423626
0.00480405
0.00502208
0.00534734
4.13288e-05
0.00139025
0.00139493
0.001503
0.0012295
0.00122381
0.00117665
0.00160348
0.00120239
0.00125014
0.00162625
0.00192351
0.0018484
0.00182025
0.00174425
0.0020109
0.00208086
0.00220271
0.00210404
0.00191585
0.00222082
0.00251185
0.00262133
0.00332653
0.00358448
0.00387362
0.00420716
0.00464771
0.00517221
0.00468755
4.86035e-05
0.00138652
0.00139719
0.00150504
0.00122999
0.00122277
0.00118515
0.00159449
0.00120662
0.00124812
0.00162524
0.00192413
0.00185254
0.00181892
0.0017545
0.00200562
0.00208535
0.0021937
0.00210853
0.0019059
0.00222332
0.00251321
0.00262129
0.00331455
0.00357523
0.00382103
0.00416306
0.00448671
0.00504505
0.00388099
5.61703e-05
0.00138261
0.00139966
0.00150687
0.00123103
0.00122139
0.00119389
0.00158546
0.00121063
0.00124558
0.00162489
0.00192417
0.00185768
0.00181672
0.00176479
0.00200085
0.00208972
0.0021852
0.00211146
0.00189738
0.00222353
0.00251706
0.00261719
0.00330585
0.00355045
0.00377875
0.00405969
0.00441861
0.00448752
0.00347467
6.40874e-05
0.00137844
0.00140235
0.00150845
0.00123269
0.00121963
0.00120285
0.00157631
0.00121441
0.00124245
0.00162523
0.00192378
0.00186356
0.00181409
0.00177447
0.0019972
0.00209303
0.00217831
0.00211028
0.00189227
0.0022183
0.00252615
0.00260467
0.00333022
0.0035061
0.00374108
0.00389158
0.00438369
0.00382616
0.00281375
7.24334e-05
0.00137392
0.00140526
0.00150973
0.00123502
0.0012175
0.00121196
0.00156712
0.00121773
0.00123884
0.00162612
0.00192325
0.0018699
0.00181112
0.0017837
0.00199426
0.00209606
0.00217118
0.00210909
0.00188485
0.00221613
0.00252701
0.0026068
0.0032806
0.00351847
0.00362638
0.00386618
0.00405201
0.00390402
0.0025936
8.13115e-05
0.00136894
0.00140843
0.00151066
0.00123812
0.00121496
0.00122126
0.00155766
0.00122076
0.00123454
0.00162774
0.00192244
0.00187696
0.00180769
0.00179233
0.00199242
0.00209853
0.00216451
0.00210634
0.00187823
0.00221144
0.00252968
0.00260338
0.00324288
0.00351401
0.00349923
0.00376238
0.00377644
0.0038208
0.00183408
9.08231e-05
0.00136335
0.00141183
0.00151121
0.00124204
0.00121201
0.00123074
0.001548
0.00122336
0.00122975
0.00162976
0.00192187
0.00188397
0.00180467
0.0017996
0.00199214
0.00209982
0.00215864
0.00209992
0.00187506
0.00219894
0.00254072
0.00258463
0.00324383
0.00346026
0.00339706
0.00356709
0.00352024
0.00330835
0.00179088
0.000101126
0.00135697
0.00141552
0.00151133
0.00124685
0.00120866
0.00124026
0.00153827
0.0012253
0.00122464
0.00163202
0.00192187
0.00189059
0.00180224
0.00180561
0.00199301
0.0021006
0.0021521
0.0020931
0.0018703
0.00218886
0.00254504
0.00257402
0.00320464
0.00341022
0.0032731
0.00340916
0.00323526
0.00239571
0.00133796
0.000112373
0.0013496
0.00141948
0.00151099
0.00125261
0.00120488
0.00124999
0.00152711
0.00122674
0.00121899
0.00163454
0.0019225
0.00189701
0.00180002
0.00181058
0.00199458
0.00210209
0.00214388
0.00208949
0.00185877
0.00218908
0.00253511
0.00257828
0.00315399
0.00336172
0.00312867
0.00323493
0.00313042
0.0027085
0.0010519
0.000124713
0.00134104
0.00142363
0.00151024
0.00125925
0.00120094
0.00125961
0.00152663
0.00122711
0.00121328
0.00163684
0.00192465
0.00190252
0.00179862
0.00181446
0.0019968
0.0021037
0.00213397
0.00208645
0.00184656
0.00219367
0.00251976
0.00259164
0.00308427
0.00330146
0.00296684
0.00302395
0.00295526
0.00259356
0.000153813
0.000138474
0.00133094
0.00142807
0.00150895
0.00126699
0.00119661
0.00126926
0.00151379
0.00122701
0.00120718
0.0016393
0.00192698
0.00190778
0.0017982
0.00181703
0.0019997
0.00210494
0.00212436
0.00207703
0.001843
0.00217527
0.00252714
0.00256714
0.00303642
0.00321673
0.0028296
0.00273716
0.00259837
0.00205009
0.000356047
0.000153713
0.00131922
0.00143247
0.0015074
0.00127556
0.00119231
0.00127837
0.00150434
0.00122529
0.00120199
0.00164029
0.0019333
0.00190971
0.00179883
0.00181823
0.00200352
0.0021068
0.00211337
0.00206343
0.00184599
0.00214574
0.00254407
0.00252883
0.00298077
0.00308572
0.00271893
0.0024386
0.00211248
0.000964062
3.00739e-05
0.00017089
0.00130539
0.00143708
0.00150529
0.00128522
0.00118799
0.00128703
0.00149426
0.00122242
0.00119697
0.00164113
0.00193886
0.00191462
0.00179738
0.00182198
0.00200279
0.0021145
0.00209354
0.00206961
0.00182224
0.00217004
0.00252079
0.00253358
0.00289453
0.00298929
0.00248654
0.00224038
0.00206213
0.0016643
-0.00027065
0.000190063
0.00128928
0.0014415
0.00150293
0.0012957
0.00118402
0.0012951
0.00148377
0.00121871
0.00119166
0.00164204
0.00194443
0.00191985
0.00179647
0.00182414
0.00200409
0.0021181
0.00207935
0.00206286
0.00181518
0.00213669
0.00252144
0.00250266
0.0028139
0.00289038
0.00231181
0.00195741
0.00172098
0.00132963
-0.000506215
0.000211732
0.0012707
0.00144546
0.00150059
0.00130656
0.00118111
0.00130174
0.00147553
0.00121225
0.00118778
0.0016411
0.00195752
0.00191571
0.00180065
0.00182065
0.00201396
0.0021114
0.00207548
0.00203397
0.00183614
0.00206844
0.00255339
0.00244067
0.00272372
0.00277174
0.00220963
0.00156672
0.00106007
-0.000187682
-0.000712624
0.000235796
0.00124952
0.00144871
0.00149826
0.00131805
0.00117904
0.00130744
0.00146689
0.00120563
0.00118221
0.00164232
0.00196347
0.0019256
0.00179588
0.00182609
0.00201015
0.00212049
0.00205133
0.0020473
0.00179338
0.0020667
0.00250939
0.00243836
0.00259889
0.00265934
0.00195151
0.00141286
0.00117503
0.000814566
-0.00100771
0.000262976
0.00122526
0.00145095
0.00149596
0.00132981
0.00117839
0.00131179
0.00145806
0.00119797
0.00117614
0.00164427
0.00196944
0.00193435
0.00179274
0.00182665
0.00201559
0.00211272
0.00205007
0.00202589
0.00176049
0.00204937
0.00246389
0.00242937
0.00246892
0.00252931
0.00173165
0.00107958
0.000804332
0.000585143
-0.00124854
0.000293343
0.00119637
0.00145101
0.00149471
0.00134034
0.00118044
0.00131413
0.00145255
0.00118791
0.00117053
0.0016449
0.00198639
0.00192676
0.00180264
0.0018129
0.00204386
0.00207069
0.00209312
0.00194691
0.00183232
0.00197062
0.0024666
0.00238194
0.00242445
0.00236326
0.00156093
0.000507781
-0.000172129
-0.001041
-0.000568282
0.000326207
0.00117084
0.00144861
0.0014949
0.00135132
0.00118416
0.00131647
0.00144341
0.00118126
0.00115982
0.00165013
0.00198878
0.00194
0.00179699
0.00181858
0.00204052
0.00207142
0.0020878
0.00191368
0.00180815
0.00193906
0.00243293
0.00236217
0.0023374
0.00224936
0.0014238
0.000252198
-0.000568532
-0.00144262
-0.000926004
0.000363256
0.00113839
0.00144383
0.00149131
0.00136188
0.00119062
0.00131801
0.0014318
0.00117189
0.00114973
0.00165462
0.00199741
0.00195059
0.0017867
0.00183363
0.00201463
0.00211036
0.00204314
0.00192356
0.00174955
0.00194204
0.00237017
0.00235485
0.00223563
0.00213089
0.00133977
0.000452917
5.14133e-05
-0.000349161
-0.00252181
0.000401735
0.00110968
0.00143295
0.00149714
0.00136794
0.00120162
0.00131797
0.00143421
0.00116263
0.00113654
0.00165959
0.00201162
0.00195706
0.00178879
0.0018322
0.00200645
0.00212665
0.00201201
0.00191828
0.00170838
0.00190955
0.00232781
0.00232628
0.00215121
0.00200332
0.001301
0.000406994
-0.000223772
-0.00117379
-0.0047834
0.000445464
0.00107619
0.00141957
0.00149153
0.00138101
0.00121011
0.00132338
0.00139694
0.00116088
0.00111593
0.00166828
0.00201326
0.0019534
0.00181037
0.00180678
0.0020281
0.00211039
0.00200636
0.00188351
0.00168632
0.00186446
0.00229898
0.00230467
0.00209559
0.00185095
0.00103513
-3.89772e-05
-0.000605209
-0.00107248
-0.00365469
0.000489022
0.00104893
0.00139678
0.00149992
0.00138209
0.00122763
0.00132396
0.00141984
0.00114379
0.001107
0.00166332
0.00206672
0.00191296
0.00184972
0.00177054
0.00205939
0.00208065
0.00201197
0.00183379
0.00167574
0.00180828
0.00225098
0.00227993
0.00203078
0.00169296
0.000851043
-0.000638237
-0.00197703
-0.00329638
-0.00376844
0.000537173
0.00101965
0.00137166
0.0014943
0.00139632
0.00123736
0.00133554
0.00136514
0.00114625
0.00107955
0.00167592
0.00204802
0.00197482
0.00181196
0.00180149
0.00202828
0.0021088
0.00198326
0.00180005
0.0016402
0.00178446
0.00218948
0.00224947
0.0018968
0.00152224
0.000726595
-0.000248784
-0.000802516
-0.0015176
-0.00470329
0.00058439
0.00099672
0.00133917
0.00149542
0.0013998
0.00125529
0.00134187
0.00137734
0.00112489
0.00106931
0.00166888
0.00208439
0.00198936
0.0017919
0.0018226
0.00200258
0.002125
0.00195654
0.00175441
0.00162679
0.00171213
0.00211701
0.00220806
0.0018487
0.00137254
0.000639019
-0.000368034
-0.00133492
-0.00268271
-0.00675153
0.000630905
0.000979662
0.00130094
0.00149246
0.00140657
0.00126959
0.00135538
0.00136625
0.00111275
0.00105566
0.00166086
0.00210279
0.00199067
0.00179075
0.00182551
0.00199024
0.00212825
0.00193212
0.00171845
0.00160125
0.00166779
0.00205454
0.00215579
0.00171652
0.00113319
0.000356181
-0.000681212
-0.00166974
-0.00303882
-0.00709611
0.000680428
0.000962382
0.0012697
0.00147126
0.00142751
0.001278
0.00137478
0.0013228
0.00109886
0.00104485
0.00164712
0.00212729
0.0019946
0.00179351
0.00181821
0.00199288
0.00211569
0.00191485
0.0016836
0.00153914
0.00163426
0.00200394
0.00209207
0.00156531
0.000769147
-0.000163347
-0.00121529
-0.00193867
-0.00248914
-0.00548987
0.000719524
0.000962049
0.00121863
0.00147233
0.00141157
0.00130807
0.00137881
0.00145989
0.00104756
0.0010431
0.00162458
0.00216207
0.00199914
0.00180026
0.0018004
0.00201239
0.00208024
0.00192505
0.00163854
0.00147407
0.00159827
0.00192796
0.00201706
0.001512
0.00057826
-0.00067726
-0.00248719
-0.00425215
-0.00562779
-0.00484458
0.00076665
0.000954008
0.00120391
0.00142175
0.0014528
0.00130256
0.00141521
0.00132589
0.00107666
0.000997861
0.00163056
0.00214755
0.00206251
0.00178058
0.00181013
0.00200306
0.00206746
0.0019189
0.00159041
0.00140651
0.001557
0.00187907
0.00185116
0.00124933
0.000354674
-0.000512147
-0.00140252
-0.00188621
-0.00206755
-0.00485029
0.000797573
0.000965594
0.00114829
0.00142898
0.00141904
0.00134425
0.00141267
0.00152303
0.00100057
0.00100725
0.00158984
0.00221244
0.00203824
0.00178573
0.00181627
0.00197927
0.00207485
0.00188615
0.00153868
0.00133796
0.00150551
0.00185418
0.00194006
0.00133934
0.000150409
-0.00141626
-0.00328495
-0.00507498
-0.00661895
-0.00554457
0.00083697
0.00096891
0.00115122
0.00132694
0.00144414
0.00134297
0.00144868
0.00142915
0.00103399
0.000932638
0.00160384
0.00219176
0.00207062
0.00178552
0.00180597
0.00198388
0.00206044
0.00184934
0.00149178
0.00128094
0.00144521
0.001804
0.00182733
0.00122925
0.000242047
-0.000787425
-0.00176014
-0.00246628
-0.00341294
-0.0071449
0.000863298
0.000983986
0.00111738
0.00134376
0.00142255
0.00136333
0.00146747
0.00148718
0.00104745
0.000873
0.00160524
0.00217514
0.00213016
0.00177055
0.00178021
0.00200452
0.00202401
0.00181928
0.00144399
0.00122423
0.00137695
0.00176536
0.00186547
0.00131095
0.000189039
-0.00111452
-0.00234834
-0.00369673
-0.00558462
-0.0101185
0.00089101
0.000995043
0.00111305
0.00130164
0.0013841
0.00140116
0.00148192
0.00155672
0.0010246
0.000854298
0.0015603
0.00219164
0.00214584
0.00175784
0.00177498
0.00201074
0.00201711
0.001776
0.00139096
0.0011712
0.00132859
0.00171971
0.00183368
0.00122444
-7.11181e-07
-0.0014051
-0.00269153
-0.00400948
-0.00599735
-0.0105268
0.000918115
0.00100111
0.00114448
0.00125491
0.0013659
0.00136218
0.00153204
0.00146439
0.00106812
0.000800155
0.00151034
0.00221772
0.0021398
0.00176805
0.00175834
0.00199952
0.0020292
0.00172103
0.00133777
0.00113892
0.00130715
0.00167128
0.00168825
0.00100518
-0.000272227
-0.00168908
-0.00286251
-0.00381746
-0.00516266
-0.00954163
0.000934734
0.00101767
0.0011061
0.0012526
0.00130413
0.00142151
0.00150432
0.00159495
0.00103138
0.000820367
0.00141621
0.00225322
0.00213162
0.00179162
0.00171932
0.00199314
0.00203815
0.00168578
0.00126739
0.00107875
0.00127293
0.00167648
0.00174318
0.000926735
-0.000793723
-0.0029044
-0.00508717
-0.00698266
-0.00856885
-0.00718994
0.000964761
0.00101372
0.00116835
0.00121406
0.00126936
0.00135068
0.00160946
0.00154689
0.00107556
0.000759436
0.00138752
0.00221775
0.00218964
0.00175722
0.00170536
0.00199188
0.00204153
0.00165675
0.00117782
0.000999165
0.00121957
0.00161572
0.00169667
0.00102696
-0.000324402
-0.00184298
-0.0031063
-0.00420504
-0.00599291
-0.0109343
0.000976868
0.00102628
0.00113082
0.00123966
0.00121014
0.00135931
0.00157631
0.00161492
0.00109358
0.000729168
0.00134695
0.00217327
0.00223797
0.00173476
0.00170839
0.00198031
0.00202979
0.00163371
0.00109663
0.00089907
0.00117437
0.00165549
0.00177605
0.00107416
-0.000452564
-0.00232499
-0.00402879
-0.0058202
-0.00845627
-0.0138159
0.00100528
0.00101891
0.00116911
0.00123873
0.00117341
0.00128711
0.00162372
0.00166102
0.00109094
0.000730484
0.00126545
0.00215297
0.00224299
0.00178937
0.00167292
0.00196383
0.00204366
0.00161371
0.00101869
0.00081189
0.00113272
0.00164402
0.00177284
0.00105271
-0.00048358
-0.0022937
-0.00395602
-0.00568159
-0.00844227
-0.014125
0.00102409
0.00102305
0.00115467
0.00125604
0.00114362
0.00122598
0.00163577
0.00169277
0.0011318
0.000684215
0.00122859
0.00211471
0.00224639
0.0017961
0.00163256
0.00196068
0.00206046
0.00159332
0.000958917
0.000725116
0.0010646
0.00160756
0.00175807
0.0010507
-0.000500025
-0.00241372
-0.0042512
-0.0061693
-0.00915561
-0.0151256
0.00104154
0.00102533
0.00114761
0.00130987
0.0011296
0.00115943
0.00159142
0.0017507
0.0011576
0.000670618
0.00117119
0.00207315
0.00224833
0.00178569
0.00160864
0.00194147
0.00207768
0.00158432
0.000889594
0.000626432
0.000981333
0.00156494
0.00174136
0.00102101
-0.000594868
-0.00261495
-0.00456837
-0.00660668
-0.00972079
-0.015784
0.00106762
0.00102218
0.00113665
0.00131403
0.00114636
0.00107745
0.00155877
0.00179339
0.00121428
0.000650307
0.00109371
0.00204077
0.00224809
0.00177443
0.00156855
0.00191453
0.0020964
0.00159202
0.000822743
0.000515214
0.000885444
0.00151253
0.00170382
0.000954131
-0.000720652
-0.002817
-0.00486103
-0.00699148
-0.0101681
-0.0162718
0.00108065
0.00103434
0.00111261
0.00134545
0.00116865
0.00101865
0.00147969
0.00182428
0.00128522
0.000630648
0.0010209
0.00199324
0.00225427
0.00176389
0.00151747
0.00187868
0.00211705
0.00161318
0.00076306
0.000390952
0.000770339
0.00144538
0.00165579
0.000869906
-0.000867551
-0.0030253
-0.00513481
-0.00733247
-0.010562
-0.0166888
0.0010959
0.00104337
0.00109425
0.00134672
0.00120663
0.000974707
0.00137801
0.00183312
0.00136504
0.00064023
0.000938163
0.00192618
0.00226662
0.00176565
0.00145946
0.00182334
0.00213162
0.00164515
0.000717656
0.000259629
0.000630558
0.0013554
0.0015984
0.00078185
-0.0010212
-0.00323845
-0.00539281
-0.00762807
-0.0108922
-0.0170414
0.00111047
0.00105139
0.00107517
0.00133716
0.00125551
0.000950676
0.00127527
0.00180975
0.00144704
0.000672488
0.000847043
0.00184408
0.00227339
0.00178536
0.00140132
0.00174545
0.00212759
0.00168567
0.000689053
0.000129673
0.000467486
0.00123592
0.00152959
0.000704935
-0.0011646
-0.00345009
-0.00563775
-0.00788513
-0.0111585
-0.0173229
0.00111523
0.00107073
0.00105887
0.00131774
0.00129963
0.000951879
0.00117663
0.00175199
0.00152086
0.000723982
0.000775374
0.00174151
0.00226467
0.00182031
0.00136104
0.00164921
0.00209596
0.00172488
0.000680275
7.34971e-06
0.000287018
0.00108592
0.00144612
0.000641294
-0.00128628
-0.0036501
-0.00587637
-0.00812394
-0.0113953
-0.0175727
0.00112353
0.00108417
0.00104967
0.00129018
0.00133092
0.000976778
0.00108726
0.00166586
0.00157046
0.000802317
0.000723965
0.00162385
0.00223366
0.001863
0.00134431
0.00154626
0.00202847
0.00174748
0.000687984
-9.71468e-05
0.000100545
0.000911884
0.00134262
0.000581297
-0.00138257
-0.00382743
-0.00610586
-0.00835528
-0.0116096
-0.017786
0.0011235
0.00109787
0.00104997
0.0012544
0.00135063
0.00101746
0.0010192
0.00155669
0.00158808
0.000891212
0.000700197
0.00150264
0.00217491
0.00190052
0.00135267
0.00145211
0.00192918
0.00173968
0.000704495
-0.000175266
-7.67044e-05
0.000722393
0.00121441
0.000513765
-0.00145976
-0.00397629
-0.00631848
-0.00858168
-0.0118165
-0.0179767
0.00112239
0.00111328
0.00105446
0.00122
0.00135321
0.00106409
0.000975429
0.00143679
0.00157
0.000977073
0.000708731
0.00138906
0.00208902
0.00192092
0.00138082
0.00137879
0.00180986
0.00169364
0.000714569
-0.000227725
-0.000232763
0.000527263
0.00106379
0.000432162
-0.00152582
-0.00409748
-0.00650748
-0.00879688
-0.0120189
-0.0181639
0.00112115
0.00112013
0.0010649
0.00118922
0.00133967
0.00110805
0.000956156
0.00132278
0.0015176
0.00104791
0.000745661
0.00129732
0.00198249
0.00191488
0.00141675
0.00133246
0.00168652
0.00161078
0.000702885
-0.000261887
-0.000358966
0.000340906
0.000897727
0.000331062
-0.00159214
-0.00419697
-0.00666909
-0.00899271
-0.0122092
-0.0183384
0.00111719
0.00112501
0.00107972
0.00116413
0.00131514
0.00114127
0.000959477
0.0012228
0.00143736
0.00109042
0.000799956
0.00123445
0.001866
0.00187777
0.0014469
0.00131041
0.001574
0.00150085
0.000662043
-0.000289161
-0.000455014
0.000174633
0.000726149
0.000210324
-0.00166743
-0.00428253
-0.00680416
-0.00916507
-0.0123796
-0.0184836
0.00111411
0.00112642
0.00109103
0.00114708
0.0012805
0.0011605
0.000977362
0.00114721
0.00134138
0.00110011
0.000859037
0.00120214
0.00175396
0.00181269
0.00145909
0.00130483
0.00148242
0.0013786
0.000591524
-0.000323568
-0.000528384
3.57555e-05
0.000561507
7.55463e-05
-0.0017574
-0.00436391
-0.00691823
-0.00931502
-0.0125404
-0.0186381
0.00111062
0.00112391
0.00110022
0.00113689
0.00124409
0.00116521
0.00100304
0.00109402
0.00124262
0.00107886
0.000908358
0.00119559
0.00165777
0.00172746
0.00144626
0.00130466
0.00141372
0.00125809
0.000497936
-0.000372467
-0.000587599
-7.6243e-05
0.00041165
-6.52809e-05
-0.00186137
-0.00444798
-0.00701866
-0.00944565
-0.0126875
-0.0187832
0.00110742
0.00111896
0.00110567
0.00113161
0.00120999
0.00115534
0.00102233
0.00106185
0.00115104
0.00103229
0.000938238
0.00120505
0.00158331
0.00163361
0.00140826
0.00129802
0.00136298
0.00115027
0.000392615
-0.000438067
-0.000644356
-0.000168508
0.000280827
-0.000201761
-0.00197348
-0.00453827
-0.00711298
-0.00956142
-0.0128198
-0.0189164
0.00110369
0.00111255
0.00110673
0.00112972
0.00118054
0.00113422
0.001034
0.00104444
0.00107397
0.000970322
0.000945112
0.00121855
0.00153004
0.00154182
0.00134998
0.00127767
0.00132306
0.00105975
0.000285786
-0.000518687
-0.00070602
-0.000246458
0.000170788
-0.00032758
-0.00208901
-0.00463493
-0.00720458
-0.00966428
-0.0129363
-0.0190375
0.00109965
0.00110506
0.00110396
0.00112796
0.00115608
0.00110735
0.00103496
0.0010346
0.00101277
0.000902855
0.000930342
0.00122665
0.00149302
0.00145973
0.00127953
0.00124207
0.00128584
0.000984084
0.00018486
-0.000607403
-0.000774042
-0.000317097
7.66004e-05
-0.000441465
-0.00220179
-0.00473273
-0.00729257
-0.00975569
-0.0130382
-0.0191493
0.0010954
0.00109645
0.0010978
0.00112458
0.00113635
0.00107855
0.00102599
0.00102629
0.000965261
0.000837063
0.000898538
0.0012236
0.00146567
0.00139029
0.00120516
0.001193
0.00124496
0.000919036
9.44405e-05
-0.000697064
-0.000848324
-0.000386852
-6.17368e-06
-0.000540749
-0.00230548
-0.00482828
-0.00737886
-0.00983989
-0.0131255
-0.0192399
0.00108875
0.00108827
0.00108909
0.00111905
0.00112006
0.0010503
0.00100919
0.00101553
0.000928195
0.00077712
0.000855893
0.001208
0.00144159
0.00133248
0.00113271
0.00113469
0.00119857
0.000860707
1.4346e-05
-0.000784019
-0.000926185
-0.000456684
-8.00869e-05
-0.000626887
-0.00239998
-0.00492075
-0.00746366
-0.00991921
-0.0132044
-0.0193224
0.00108246
0.00107909
0.00107861
0.00111108
0.0011053
0.00102396
0.000987114
0.00100059
0.00089741
0.000724382
0.000808126
0.00118156
0.00141591
0.00128308
0.00106567
0.00107247
0.00114712
0.000804984
-5.75161e-05
-0.000865302
-0.00100351
-0.000526516
-0.000149638
-0.000704266
-0.00248536
-0.00500717
-0.00754517
-0.00999568
-0.0132787
-0.019398
0.00107489
0.00106957
0.00106722
0.00110084
0.00109101
0.000999705
0.000962217
0.000981329
0.000869543
0.000678328
0.00075957
0.001147
0.0013863
0.00123892
0.00100515
0.00101037
0.00109217
0.000749931
-0.000122865
-0.00093992
-0.00107824
-0.000595995
-0.000216466
-0.000774474
-0.0025617
-0.00508669
-0.00762319
-0.0100707
-0.0133536
-0.0194765
0.00106629
0.00105972
0.0010551
0.00108882
0.00107646
0.000977143
0.000936355
0.000958575
0.000842413
0.000637555
0.000712709
0.00110745
0.00135259
0.00119748
0.000950513
0.000950752
0.00103606
0.000695246
-0.000183627
-0.00100848
-0.00114894
-0.0006634
-0.000280567
-0.000839468
-0.00263118
-0.00516003
-0.00769698
-0.0101428
-0.0134243
-0.019547
0.00105706
0.00104921
0.00104256
0.00107549
0.00106129
0.000955898
0.000910628
0.000933549
0.000815
0.000600508
0.000668571
0.00106594
0.00131589
0.0011572
0.000900634
0.000894878
0.000980839
0.000641245
-0.000241066
-0.00107169
-0.00121479
-0.000727563
-0.000341875
-0.000900347
-0.00269475
-0.00522696
-0.00776522
-0.0102099
-0.0134894
-0.0196108
0.00104706
0.00103833
0.00102983
0.00106132
0.00104555
0.00093553
0.000885617
0.000907505
0.000787136
0.00056591
0.000627514
0.00102472
0.0012776
0.00111745
0.000854511
0.000843197
0.000927923
0.000588686
-0.000295602
-0.00113014
-0.00127565
-0.000787684
-0.00039971
-0.000957104
-0.00275299
-0.00528789
-0.00782753
-0.0102712
-0.0135483
-0.0196683
0.00103667
0.00102716
0.00101696
0.00104682
0.00102941
0.0009158
0.000861625
0.000881359
0.000759162
0.000533249
0.000589481
0.00098495
0.00123905
0.00107841
0.000811504
0.000795668
0.000878289
0.00053857
-0.00034712
-0.0011843
-0.0013316
-0.000843206
-0.000453394
-0.00100961
-0.00280627
-0.00534304
-0.00788366
-0.0103265
-0.0136018
-0.0197209
0.00102603
0.00101582
0.00100419
0.00103232
0.00101319
0.00089673
0.000838807
0.000855863
0.000731701
0.000502315
0.000554258
0.000947472
0.00120161
0.00104055
0.000771172
0.0007521
0.000832636
0.000491876
-0.000395206
-0.00123433
-0.00138284
-0.000893989
-0.000502612
-0.00105765
-0.00285457
-0.00539262
-0.0079341
-0.0103766
-0.0136508
-0.0197695
0.00101547
0.00100463
0.000991736
0.00101821
0.000997309
0.000878416
0.000817347
0.000831703
0.000705374
0.000473158
0.000521804
0.000912891
0.00116636
0.00100463
0.000733595
0.000712344
0.000791156
0.000449159
-0.000439353
-0.00128007
-0.00142942
-0.000940055
-0.000547248
-0.00110108
-0.00289802
-0.0054371
-0.00797946
-0.0104218
-0.0136953
-0.0198136
0.00100526
0.000993847
0.000979864
0.0010048
0.000982204
0.000861183
0.000797492
0.000809337
0.000680814
0.000446164
0.000492261
0.000881578
0.00113414
0.000971535
0.000699175
0.0006764
0.000753954
0.000410875
-0.000478999
-0.00132116
-0.0014712
-0.00098134
-0.000587229
-0.00113999
-0.00293693
-0.00547693
-0.00802007
-0.0104623
-0.0137349
-0.019853
0.000995807
0.000983843
0.000968897
0.000992515
0.000968344
0.000845438
0.000779536
0.000789211
0.000658677
0.000421891
0.000465934
0.000853866
0.00110559
0.0009421
0.000668619
0.000644684
0.000721232
0.000377116
-0.000514049
-0.00135736
-0.00150776
-0.00101728
-0.000622096
-0.00117415
-0.00297135
-0.00551229
-0.00805615
-0.0104983
-0.0137701
-0.0198876
0.000987411
0.000975016
0.000959266
0.000981779
0.000956267
0.000831778
0.000764027
0.000771822
0.000639499
0.000400942
0.000443437
0.000830359
0.00108139
0.00091716
0.000642876
0.000618117
0.000693751
0.000348478
-0.000543962
-0.00138809
-0.0015384
-0.0010471
-0.000650998
-0.00120279
-0.00300066
-0.00554277
-0.00808743
-0.0105296
-0.0138011
-0.0199185
0.000980417
0.000967678
0.000951299
0.000972965
0.000946477
0.000820801
0.000751642
0.000757948
0.000624178
0.000384297
0.000425855
0.000812294
0.00106295
0.000898228
0.000623397
0.00059804
0.000672895
0.000326475
-0.000567192
-0.00141187
-0.00156168
-0.00106921
-0.000672119
-0.00122391
-0.00302297
-0.00556664
-0.00811222
-0.0105544
-0.0138255
-0.0199427
0.000975186
0.000961921
0.000944897
0.00096568
0.000938082
0.000811062
0.000740357
0.000745056
0.000609737
0.000368589
0.000409486
0.000795686
0.00104596
0.000880575
0.000604924
0.000578788
0.000652816
0.000305244
-0.00058963
-0.00143474
-0.00158386
-0.00109015
-0.000692295
-0.00124459
-0.00304516
-0.00559016
-0.0081359
-0.0105774
-0.0138483
-0.0199683
0.0124167
0.0118703
0.0102552
0.00829209
0.00580257
0.00263461
-0.00109784
-0.00483911
-0.00762832
-0.00885873
-0.00874718
-0.00795084
-0.00699357
-0.0061211
-0.00542701
-0.00493773
-0.00463008
-0.00444593
-0.00432634
-0.00424156
-0.00419051
-0.00417471
-0.00417834
-0.00417645
-0.00415646
-0.00412351
-0.00408676
-0.00404776
-0.00400394
-0.00395791
-0.00391832
-0.00389184
-0.00387695
-0.0038667
-0.00385549
-0.00384187
-0.00382603
-0.00380777
-0.00378824
-0.00377085
-0.00375885
-0.00375289
-0.00375099
-0.00375021
-0.00374841
-0.00374524
-0.00374188
-0.00373953
-0.00373883
-0.00374042
-0.00374454
-0.00375027
-0.00375634
-0.00376221
-0.0037679
-0.00377358
-0.00377999
-0.00378827
-0.00379884
-0.00381073
-0.00382247
-0.00383344
-0.00384412
-0.00385545
-0.00386807
-0.00388173
-0.00389532
-0.00390791
-0.00391945
-0.00393038
-0.00394086
-0.00395061
-0.00395931
-0.00396669
-0.0039725
-0.00397662
-0.00397906
-0.00397986
-0.00397895
-0.00397632
-0.00397209
-0.00396642
-0.00395925
-0.00395051
-0.00394032
-0.00392891
-0.00391645
-0.00390291
-0.00388843
-0.0038732
-0.00385754
-0.00384173
-0.0038257
-0.00380913
-0.00379203
-0.00377477
-0.00375748
-0.00373999
-0.0037224
-0.00370508
-0.00368822
-0.00367166
-0.00365524
-0.00363896
-0.00362286
-0.00360692
-0.00359109
-0.00357542
-0.00355996
-0.00354458
-0.00352927
-0.00351428
-0.00349973
-0.00348547
-0.0034713
-0.00345737
-0.00344394
-0.00343093
-0.00341808
-0.00340539
-0.00339309
-0.00338123
-0.00336968
-0.00335842
-0.0033475
-0.00333692
-0.00332667
-0.00331673
-0.00330715
-0.00329787
-0.00328893
-0.00328039
-0.00327216
-0.00326417
-0.00325649
-0.00324925
-0.00324224
-0.00323549
-0.00322909
-0.00322317
-0.00321744
-0.00321185
-0.0032067
-0.00320197
-0.00319746
-0.00319294
-0.00318886
-0.00318537
-0.00318213
-0.00317886
-0.00317572
-0.00317319
-0.00317105
-0.00316906
-0.00316704
-0.00316532
-0.00316411
-0.00316327
-0.00316255
-0.00316182
-0.00316127
-0.00316117
-0.00316148
-0.00316197
-0.00316248
-0.00316311
-0.00316409
-0.00316536
-0.00316682
-0.00316833
-0.00317003
-0.003172
-0.00317419
-0.00317646
-0.00317883
-0.00318136
-0.00318414
-0.00318711
-0.00319016
-0.00319329
-0.00319642
-0.0031998
-0.00320339
-0.00320703
-0.00321071
-0.00321438
-0.0032183
-0.00322225
-0.00322624