/*--------------------------------*- C++ -*----------------------------------*\
| =========                 |                                                 |
| \\      /  F ield         | OpenFOAM: The Open Source CFD Toolbox           |
|  \\    /   O peration     | Version:  v2006                                 |
|   \\  /    A nd           | Website:  www.openfoam.com                      |
|    \\/     M anipulation  |                                                 |
\*---------------------------------------------------------------------------*/
FoamFile
{
    version     2.0;
    format      ascii;
    class       surfaceScalarField;
    location    "0.2";
    object      phi;
}
// * * * * * * * * * * * * * * * * * * * * * * * * * * * * * * * * * * * * * //

dimensions      [0 3 -1 0 0 0 0];
oriented        oriented;


internalField   nonuniform List<scalar> 
52390
(
1.17053e-06
-2.46347e-07
1.16874e-06
1.49303e-07
1.17116e-06
2.22789e-08
1.16913e-06
1.6695e-07
1.17562e-06
-1.76617e-07
1.17525e-06
-1.0597e-07
1.17749e-06
-2.75213e-07
1.172e-06
4.16012e-08
1.17282e-06
1.33076e-07
1.16996e-06
2.94669e-07
1.17299e-06
1.1627e-07
1.17103e-06
6.31438e-08
1.17996e-06
-6.46114e-08
1.17568e-06
-1.70301e-07
1.17682e-06
-2.98209e-07
1.17879e-06
-8.20239e-08
1.18265e-06
-1.04712e-07
1.17699e-06
-8.60882e-08
1.18267e-06
9.77685e-09
1.1765e-06
-7.56993e-09
1.18312e-06
2.34108e-08
1.1803e-06
2.95706e-08
1.18407e-06
-3.85361e-08
1.18263e-06
4.98445e-09
1.18748e-06
-3.87997e-08
1.18201e-06
-2.65464e-08
1.18619e-06
-5.71756e-08
1.17843e-06
-1.12749e-08
1.17764e-06
-5.33521e-09
2.73338e-08
1.14581e-06
1.22713e-06
-2.49216e-07
1.22593e-06
1.50503e-07
1.22808e-06
2.01261e-08
1.22698e-06
1.68053e-07
1.23315e-06
-1.82785e-07
1.23261e-06
-1.05437e-07
1.235e-06
-2.776e-07
1.23018e-06
4.6421e-08
1.22993e-06
1.33326e-07
1.22955e-06
2.9505e-07
1.23023e-06
1.1559e-07
1.23017e-06
6.32007e-08
1.23629e-06
-7.07307e-08
1.23283e-06
-1.66843e-07
1.23308e-06
-2.98452e-07
1.23685e-06
-8.57972e-08
1.23906e-06
-1.06922e-07
1.236e-06
-8.30271e-08
1.23845e-06
7.32271e-09
1.23674e-06
-5.8574e-09
1.23817e-06
2.19863e-08
1.24154e-06
2.61996e-08
1.23876e-06
-3.5762e-08
1.24448e-06
-7.2917e-10
1.24103e-06
-3.53492e-08
1.24523e-06
-3.07527e-08
1.23817e-06
-5.01122e-08
1.24236e-06
-1.54703e-08
1.22974e-06
7.28727e-09
4.13051e-08
1.21577e-06
1.28519e-06
-2.51625e-07
1.28679e-06
1.48908e-07
1.28751e-06
1.94039e-08
1.28833e-06
1.67232e-07
1.29222e-06
-1.86672e-07
1.29297e-06
-1.06188e-07
1.294e-06
-2.78631e-07
1.29234e-06
4.80829e-08
1.29009e-06
1.35579e-07
1.29302e-06
2.92118e-07
1.29065e-06
1.17961e-07
1.29246e-06
6.1388e-08
1.29408e-06
-7.23524e-08
1.29215e-06
-1.64914e-07
1.28958e-06
-2.95877e-07
1.29633e-06
-9.25516e-08
1.29622e-06
-1.06812e-07
1.29702e-06
-8.38299e-08
1.29661e-06
7.7404e-09
1.29864e-06
-7.89318e-09
1.29713e-06
2.35003e-08
1.30235e-06
2.09795e-08
1.29778e-06
-3.11916e-08
1.30294e-06
-5.89244e-09
1.29982e-06
-3.22257e-08
1.30199e-06
-3.2922e-08
1.29774e-06
-4.58638e-08
1.29611e-06
-1.38372e-08
1.29278e-06
1.06164e-08
6.25337e-08
1.27155e-06
1.34522e-06
-2.52747e-07
1.3496e-06
1.44529e-07
1.349e-06
2.00089e-08
1.35146e-06
1.64774e-07
1.35247e-06
-1.87687e-07
1.35437e-06
-1.08091e-07
1.35371e-06
-2.77968e-07
1.35571e-06
4.60804e-08
1.35315e-06
1.38142e-07
1.35789e-06
2.87376e-07
1.35371e-06
1.22142e-07
1.35564e-06
5.94582e-08
1.35365e-06
-7.03561e-08
1.35179e-06
-1.63056e-07
1.34738e-06
-2.91468e-07
1.35522e-06
-1.0039e-07
1.35484e-06
-1.06432e-07
1.35737e-06
-8.63617e-08
1.3574e-06
7.71149e-09
1.36003e-06
-1.05244e-08
1.35928e-06
2.42493e-08
1.3627e-06
1.75566e-08
1.35945e-06
-2.79434e-08
1.36162e-06
-8.05861e-09
1.36039e-06
-3.0992e-08
1.35992e-06
-3.24589e-08
1.35793e-06
-4.38733e-08
1.35411e-06
-1.00162e-08
1.35243e-06
1.22972e-08
8.23424e-08
1.33262e-06
1.40774e-06
-2.52132e-07
1.41389e-06
1.38378e-07
1.41257e-06
2.133e-08
1.41586e-06
1.61484e-07
1.41432e-06
-1.86152e-07
1.41643e-06
-1.10195e-07
1.41444e-06
-2.75982e-07
1.41927e-06
4.12539e-08
1.4184e-06
1.39015e-07
1.42342e-06
2.82357e-07
1.41901e-06
1.26543e-07
1.41978e-06
5.8695e-08
1.41578e-06
-6.63627e-08
1.41278e-06
-1.60049e-07
1.40773e-06
-2.86419e-07
1.41515e-06
-1.07813e-07
1.41553e-06
-1.06814e-07
1.4185e-06
-8.93255e-08
1.4201e-06
6.10665e-09
1.42244e-06
-1.28669e-08
1.42296e-06
2.37298e-08
1.42471e-06
1.58122e-08
1.42225e-06
-2.54893e-08
1.42267e-06
-8.46994e-09
1.42183e-06
-3.01586e-08
1.42034e-06
-3.09637e-08
1.41849e-06
-4.20279e-08
1.41558e-06
-7.1084e-09
1.41164e-06
1.62432e-08
1.00174e-07
1.39381e-06
1.47341e-06
-2.49863e-07
1.47997e-06
1.31814e-07
1.47874e-06
2.25619e-08
1.48207e-06
1.58154e-07
1.47886e-06
-1.82941e-07
1.48016e-06
-1.11494e-07
1.47733e-06
-2.73157e-07
1.48362e-06
3.49686e-08
1.48534e-06
1.37294e-07
1.49008e-06
2.77612e-07
1.48645e-06
1.30176e-07
1.48603e-06
5.91203e-08
1.48128e-06
-6.16137e-08
1.47707e-06
-1.55839e-07
1.47163e-06
-2.80983e-07
1.47813e-06
-1.1431e-07
1.47895e-06
-1.07639e-07
1.48199e-06
-9.2365e-08
1.4847e-06
3.39828e-09
1.48691e-06
-1.50747e-08
1.48808e-06
2.25575e-08
1.48896e-06
1.49283e-08
1.4866e-06
-2.31257e-08
1.48622e-06
-8.08479e-09
1.48505e-06
-2.89956e-08
1.48324e-06
-2.91474e-08
1.4808e-06
-3.95872e-08
1.47901e-06
-5.32492e-09
1.47479e-06
2.04697e-08
6.06989e-08
1.51426e-06
1.54274e-06
-2.46386e-07
1.54866e-06
1.2589e-07
1.5481e-06
2.31307e-08
1.55112e-06
1.55126e-07
1.54709e-06
-1.78912e-07
1.54711e-06
-1.11514e-07
1.54359e-06
-2.69636e-07
1.55012e-06
2.84416e-08
1.55401e-06
1.33399e-07
1.55879e-06
2.72835e-07
1.55626e-06
1.32704e-07
1.55542e-06
5.99679e-08
1.55064e-06
-5.68357e-08
1.54583e-06
-1.51029e-07
1.53972e-06
-2.74879e-07
1.54514e-06
-1.19728e-07
1.54578e-06
-1.08283e-07
1.54864e-06
-9.52226e-08
1.55178e-06
2.61223e-10
1.55387e-06
-1.71691e-08
1.55533e-06
2.10979e-08
1.55575e-06
1.4516e-08
1.55345e-06
-2.08322e-08
1.55251e-06
-7.14348e-09
1.55125e-06
-2.77321e-08
1.54864e-06
-2.65419e-08
1.54727e-06
-3.82172e-08
1.54321e-06
-1.2588e-09
1.5399e-06
2.37738e-08
8.81618e-08
1.51244e-06
1.61595e-06
-2.42204e-07
1.6208e-06
1.21039e-07
1.62103e-06
2.28966e-08
1.62389e-06
1.52267e-07
1.61957e-06
-1.74591e-07
1.61843e-06
-1.10376e-07
1.61405e-06
-2.65251e-07
1.62e-06
2.24916e-08
1.62502e-06
1.28373e-07
1.63034e-06
2.6752e-07
1.62897e-06
1.34076e-07
1.62847e-06
6.04588e-08
1.62409e-06
-5.24538e-08
1.61928e-06
-1.46218e-07
1.61226e-06
-2.6786e-07
1.61646e-06
-1.23929e-07
1.61654e-06
-1.08363e-07
1.61889e-06
-9.75645e-08
1.62198e-06
-2.83008e-09
1.62381e-06
-1.90021e-08
1.62544e-06
1.94723e-08
1.62557e-06
1.43868e-08
1.6235e-06
-1.87695e-08
1.62228e-06
-5.92057e-09
1.62084e-06
-2.62947e-08
1.61801e-06
-2.3714e-08
1.61638e-06
-3.65826e-08
1.61263e-06
2.48718e-09
1.61019e-06
2.62151e-08
1.25127e-07
1.57323e-06
1.69303e-06
-2.3766e-07
1.6969e-06
1.1717e-07
1.69774e-06
2.20548e-08
1.70077e-06
1.49237e-07
1.69637e-06
-1.70191e-07
1.6945e-06
-1.08503e-07
1.68906e-06
-2.59809e-07
1.69401e-06
1.75362e-08
1.69923e-06
1.23159e-07
1.70537e-06
2.61379e-07
1.7051e-06
1.34342e-07
1.70539e-06
6.01666e-08
1.70162e-06
-4.86846e-08
1.69717e-06
-1.41766e-07
1.6892e-06
-2.5989e-07
1.6921e-06
-1.26832e-07
1.69148e-06
-1.07738e-07
1.69306e-06
-9.91497e-08
1.6958e-06
-5.56549e-09
1.69728e-06
-2.04857e-08
1.69895e-06
1.78043e-08
1.69909e-06
1.42482e-08
1.69715e-06
-1.68292e-08
1.69638e-06
-5.15032e-09
1.69375e-06
-2.36654e-08
1.69299e-06
-2.29528e-08
1.68657e-06
-3.01595e-08
1.69161e-06
-2.56158e-09
1.69318e-06
2.46513e-08
7.35283e-08
1.74478e-06
1.77396e-06
-2.329e-07
1.77719e-06
1.13939e-07
1.77833e-06
2.0918e-08
1.78181e-06
1.45756e-07
1.77736e-06
-1.65744e-07
1.77519e-06
-1.06326e-07
1.76866e-06
-2.53283e-07
1.77254e-06
1.36581e-08
1.77738e-06
1.18314e-07
1.78437e-06
2.5439e-07
1.78508e-06
1.33639e-07
1.78623e-06
5.90094e-08
1.78311e-06
-4.55673e-08
1.77915e-06
-1.37796e-07
1.77036e-06
-2.51104e-07
1.772e-06
-1.28469e-07
1.77071e-06
-1.06451e-07
1.77142e-06
-9.98588e-08
1.77371e-06
-7.85495e-09
1.77474e-06
-2.15201e-08
1.77652e-06
1.6026e-08
1.77664e-06
1.41319e-08
1.77513e-06
-1.53243e-08
1.77456e-06
-4.57529e-09
1.77157e-06
-2.06798e-08
1.77158e-06
-2.29635e-08
1.76365e-06
-2.22282e-08
1.76987e-06
-8.77642e-09
1.77054e-06
2.39788e-08
1.41822e-08
1.82988e-06
1.85879e-06
-2.27943e-07
1.86175e-06
1.10981e-07
1.8629e-06
1.97632e-08
1.86696e-06
1.41705e-07
1.86242e-06
-1.61206e-07
1.86025e-06
-1.04153e-07
1.85276e-06
-2.458e-07
1.85572e-06
1.07002e-08
1.85998e-06
1.14053e-07
1.86769e-06
2.46676e-07
1.86915e-06
1.32183e-07
1.87105e-06
5.71079e-08
1.8685e-06
-4.30168e-08
1.86498e-06
-1.34274e-07
1.8556e-06
-2.41729e-07
1.85612e-06
-1.28981e-07
1.85431e-06
-1.04646e-07
1.85415e-06
-9.97005e-08
1.85605e-06
-9.75223e-09
1.85659e-06
-2.20599e-08
1.85858e-06
1.40394e-08
1.85855e-06
1.41592e-08
1.85781e-06
-1.45827e-08
1.85684e-06
-3.60569e-09
1.85494e-06
-1.87817e-08
1.853e-06
-2.10195e-08
1.84919e-06
-1.84198e-08
1.84367e-06
-3.25844e-09
1.84051e-06
2.71441e-08
5.49302e-08
1.79976e-06
1.94765e-06
-2.22756e-07
1.95063e-06
1.08005e-07
1.95161e-06
1.87831e-08
1.95623e-06
1.37087e-07
1.95153e-06
-1.56506e-07
1.94953e-06
-1.02156e-07
1.94128e-06
-2.37549e-07
1.94359e-06
8.38387e-09
1.94726e-06
1.10391e-07
1.95554e-06
2.3839e-07
1.95751e-06
1.30217e-07
1.95996e-06
5.46526e-08
1.95784e-06
-4.08905e-08
1.95465e-06
-1.31086e-07
1.94492e-06
-2.32003e-07
1.94452e-06
-1.28577e-07
1.94237e-06
-1.02495e-07
1.94146e-06
-9.87952e-08
1.94306e-06
-1.13471e-08
1.94318e-06
-2.21803e-08
1.94533e-06
1.18833e-08
1.94523e-06
1.42663e-08
1.94511e-06
-1.44669e-08
1.94386e-06
-2.3534e-09
1.94283e-06
-1.77542e-08
1.93933e-06
-1.75188e-08
1.93839e-06
-1.74798e-08
1.92614e-06
8.98788e-09
1.93002e-06
2.32688e-08
9.29653e-08
1.89198e-06
2.04073e-06
-2.17302e-07
2.04393e-06
1.04809e-07
2.04462e-06
1.8098e-08
2.04974e-06
1.31959e-07
2.0448e-06
-1.51564e-07
2.04306e-06
-1.00416e-07
2.03422e-06
-2.28703e-07
2.03618e-06
6.41857e-09
2.03932e-06
1.07249e-07
2.04805e-06
2.29668e-07
2.05032e-06
1.27943e-07
2.05313e-06
5.18372e-08
2.05131e-06
-3.90621e-08
2.04828e-06
-1.28063e-07
2.03845e-06
-2.22172e-07
2.0373e-06
-1.2742e-07
2.03501e-06
-1.00207e-07
2.03346e-06
-9.72501e-08
2.0349e-06
-1.27879e-08
2.03468e-06
-2.19612e-08
2.03694e-06
9.62445e-09
2.03688e-06
1.43282e-08
2.03697e-06
-1.45547e-08
2.03611e-06
-1.49032e-09
2.03426e-06
-1.59113e-08
2.03258e-06
-1.58384e-08
2.02641e-06
-1.13081e-08
2.02222e-06
1.31799e-08
2.01384e-06
3.165e-08
1.30009e-07
1.97679e-06
2.13825e-06
-2.11552e-07
2.14181e-06
1.01255e-07
2.14212e-06
1.77843e-08
2.14771e-06
1.26369e-07
2.14245e-06
-1.46305e-07
2.141e-06
-9.89617e-08
2.13168e-06
-2.19385e-07
2.13353e-06
4.56739e-09
2.13625e-06
1.04524e-07
2.14531e-06
2.20611e-07
2.14775e-06
1.25504e-07
2.15076e-06
4.88251e-08
2.14915e-06
-3.74493e-08
2.14612e-06
-1.25031e-07
2.13639e-06
-2.12447e-07
2.1346e-06
-1.25629e-07
2.13234e-06
-9.79425e-08
2.1303e-06
-9.52097e-08
2.13164e-06
-1.41288e-08
2.13127e-06
-2.15954e-08
2.13337e-06
7.52365e-09
2.13374e-06
1.39575e-08
2.13327e-06
-1.40775e-08
2.13375e-06
-1.97192e-09
2.12948e-06
-1.16426e-08
2.13213e-06
-1.84876e-08
2.1178e-06
3.01986e-09
2.12604e-06
4.93663e-09
2.11324e-06
4.44525e-08
3.07945e-08
2.21246e-06
2.24042e-06
-2.05487e-07
2.24443e-06
9.72435e-08
2.24432e-06
1.78986e-08
2.25035e-06
1.20344e-07
2.24471e-06
-1.40668e-07
2.24355e-06
-9.78007e-08
2.23384e-06
-2.09675e-07
2.23574e-06
2.66522e-09
2.23813e-06
1.02134e-07
2.24746e-06
2.11281e-07
2.24997e-06
1.22987e-07
2.25307e-06
4.57292e-08
2.25162e-06
-3.59985e-08
2.24846e-06
-1.21869e-07
2.23896e-06
-2.02951e-07
2.23665e-06
-1.23321e-07
2.23446e-06
-9.5749e-08
2.2321e-06
-9.28539e-08
2.23332e-06
-1.53425e-08
2.23295e-06
-2.12325e-08
2.23488e-06
5.59886e-09
2.23544e-06
1.3394e-08
2.23508e-06
-1.37177e-08
2.23487e-06
-1.75847e-09
2.23241e-06
-9.1856e-09
2.23079e-06
-1.68667e-08
2.22325e-06
1.05616e-08
2.2207e-06
7.48498e-09
2.20466e-06
6.04918e-08
6.20567e-08
2.1734e-06
2.34748e-06
-1.99093e-07
2.35202e-06
9.27033e-08
2.35143e-06
1.849e-08
2.35788e-06
1.13891e-07
2.35182e-06
-1.34607e-07
2.35096e-06
-9.69334e-08
2.3409e-06
-1.9962e-07
2.34295e-06
6.1956e-10
2.34507e-06
1.00013e-07
2.35462e-06
2.01728e-07
2.35718e-06
1.20428e-07
2.36026e-06
4.26457e-08
2.35898e-06
-3.47185e-08
2.35556e-06
-1.18448e-07
2.34642e-06
-1.93813e-07
2.3436e-06
-1.20501e-07
2.3416e-06
-9.37496e-08
2.33889e-06
-9.01348e-08
2.3402e-06
-1.66566e-08
2.33961e-06
-2.06423e-08
2.34172e-06
3.48515e-09
2.34191e-06
1.32049e-08
2.34236e-06
-1.41627e-08
2.34036e-06
2.40143e-10
2.34111e-06
-9.93527e-09
2.33393e-06
-9.68684e-09
2.3359e-06
8.58707e-09
2.31914e-06
2.42433e-08
2.31551e-06
6.41216e-08
9.17997e-08
2.28577e-06
2.45967e-06
-1.92363e-07
2.46478e-06
8.7584e-08
2.46368e-06
1.95967e-08
2.47056e-06
1.07012e-07
2.46406e-06
-1.28107e-07
2.46347e-06
-9.63445e-08
2.45312e-06
-1.89272e-07
2.45533e-06
-1.59573e-09
2.45724e-06
9.81039e-08
2.46697e-06
1.92005e-07
2.46957e-06
1.17827e-07
2.47257e-06
3.9644e-08
2.47148e-06
-3.36312e-08
2.46773e-06
-1.14694e-07
2.45901e-06
-1.85095e-07
2.45572e-06
-1.17206e-07
2.45388e-06
-9.19146e-08
2.45097e-06
-8.72231e-08
2.45215e-06
-1.78378e-08
2.45181e-06
-2.02986e-08
2.45328e-06
2.01231e-09
2.45459e-06
1.18987e-08
2.45299e-06
-1.25682e-08
2.4541e-06
-8.64697e-10
2.45026e-06
-6.10464e-09
2.44714e-06
-6.56691e-09
2.44507e-06
1.06598e-08
2.43523e-06
3.40805e-08
2.42204e-06
7.73159e-08
1.30953e-07
2.38289e-06
2.57723e-06
-1.85295e-07
2.58295e-06
8.18559e-08
2.58131e-06
2.12416e-08
2.5886e-06
9.97213e-08
2.58167e-06
-1.21176e-07
2.58133e-06
-9.60013e-08
2.57075e-06
-1.78695e-07
2.57311e-06
-3.9535e-09
2.57487e-06
9.63444e-08
2.58469e-06
1.82185e-07
2.58737e-06
1.15148e-07
2.59023e-06
3.67829e-08
2.58933e-06
-3.27369e-08
2.58528e-06
-1.10644e-07
2.57689e-06
-1.76698e-07
2.57334e-06
-1.13657e-07
2.57138e-06
-8.99584e-08
2.56871e-06
-8.45484e-08
2.56922e-06
-1.83489e-08
2.5698e-06
-2.08786e-08
2.56982e-06
1.99536e-09
2.57321e-06
8.50536e-09
2.5682e-06
-7.56468e-09
2.57414e-06
-6.79718e-09
2.56469e-06
3.33829e-09
2.56821e-06
-1.0085e-08
2.55677e-06
2.21004e-08
2.56805e-06
2.27997e-08
2.60687e-06
3.85005e-08
4.20327e-08
2.69579e-06
2.70042e-06
-1.7789e-07
2.70678e-06
7.55005e-08
2.70458e-06
2.34393e-08
2.71227e-06
9.20323e-08
2.70493e-06
-1.13833e-07
2.70479e-06
-9.58676e-08
2.69406e-06
-1.67963e-07
2.6965e-06
-6.39238e-09
2.69819e-06
9.46523e-08
2.708e-06
1.7238e-07
2.71085e-06
1.1229e-07
2.71346e-06
3.4179e-08
2.71284e-06
-3.21218e-08
2.70841e-06
-1.06212e-07
2.70045e-06
-1.68734e-07
2.69652e-06
-1.09732e-07
2.6947e-06
-8.81319e-08
2.69172e-06
-8.15778e-08
2.69262e-06
-1.92421e-08
2.69224e-06
-2.05049e-08
2.69405e-06
1.9194e-10
2.69427e-06
8.28454e-09
2.69389e-06
-7.18765e-09
2.69339e-06
-6.29963e-09
2.6906e-06
6.13292e-09
2.68691e-06
-6.39381e-09
2.68408e-06
2.49238e-08
2.67451e-06
3.2378e-08
2.65419e-06
5.88197e-08
7.72428e-08
2.61898e-06
2.82953e-06
-1.70147e-07
2.83653e-06
6.85009e-08
2.83376e-06
2.62078e-08
2.84184e-06
8.39452e-08
2.83408e-06
-1.06072e-07
2.83415e-06
-9.59334e-08
2.82331e-06
-1.57126e-07
2.82578e-06
-8.86495e-09
2.82746e-06
9.29752e-08
2.83719e-06
1.62654e-07
2.84022e-06
1.09254e-07
2.84262e-06
3.17827e-08
2.84213e-06
-3.16287e-08
2.83757e-06
-1.01657e-07
2.82974e-06
-1.609e-07
2.82579e-06
-1.05782e-07
2.82376e-06
-8.60999e-08
2.8208e-06
-7.86244e-08
2.82179e-06
-2.02323e-08
2.82071e-06
-1.94255e-08
2.82413e-06
-3.22594e-09
2.82108e-06
1.13334e-08
2.82564e-06
-1.17418e-08
2.81829e-06
1.0446e-09
2.82458e-06
-1.52443e-10
2.8133e-06
4.88237e-09
2.81827e-06
1.99548e-08
2.79518e-06
5.54656e-08
2.78597e-06
6.80342e-08
1.0117e-07
2.76204e-06
2.96483e-06
-1.62087e-07
2.97245e-06
6.08816e-08
2.96915e-06
2.95106e-08
2.97757e-06
7.55228e-08
2.96946e-06
-9.79555e-08
2.96963e-06
-9.61081e-08
2.95884e-06
-1.46329e-07
2.96117e-06
-1.12034e-08
2.963e-06
9.11463e-08
2.97247e-06
1.53191e-07
2.97585e-06
1.05871e-07
2.97786e-06
2.97762e-08
2.97767e-06
-3.1439e-08
2.97277e-06
-9.67655e-08
2.96536e-06
-1.53486e-07
2.96107e-06
-1.01488e-07
2.9592e-06
-8.42294e-08
2.95599e-06
-7.54166e-08
2.95689e-06
-2.11317e-08
2.95632e-06
-1.88576e-08
2.95841e-06
-5.31768e-09
2.95747e-06
1.2277e-08
2.95856e-06
-1.28372e-08
2.9552e-06
4.4052e-09
2.95509e-06
-3.64938e-11
2.95014e-06
9.82759e-09
2.9497e-06
2.03977e-08
2.93743e-06
6.77375e-08
2.9116e-06
9.38558e-08
1.38569e-07
2.87421e-06
3.10666e-06
-1.53744e-07
3.11485e-06
5.26937e-08
3.11109e-06
3.32759e-08
3.11975e-06
6.68624e-08
3.11136e-06
-8.95685e-08
3.11156e-06
-9.63074e-08
3.1009e-06
-1.35671e-07
3.10302e-06
-1.33265e-08
3.10504e-06
8.91308e-08
3.11427e-06
1.43956e-07
3.11781e-06
1.02334e-07
3.11976e-06
2.78282e-08
3.11936e-06
-3.1043e-08
3.11486e-06
-9.22632e-08
3.10695e-06
-1.4557e-07
3.10351e-06
-9.80548e-08
3.10016e-06
-8.08726e-08
3.09904e-06
-7.43026e-08
3.09682e-06
-1.89059e-08
3.10053e-06
-2.25702e-08
3.09635e-06
-1.13896e-09
3.10326e-06
5.3718e-09
3.09505e-06
-4.63379e-09
3.10337e-06
-3.90831e-09
3.09144e-06
1.1893e-08
3.09518e-06
6.07894e-09
3.08415e-06
3.14293e-08
3.11606e-06
3.5828e-08
3.16176e-06
4.8157e-08
4.66354e-08
3.2537e-06
3.25532e-06
-1.4515e-07
3.26402e-06
4.39941e-08
3.25991e-06
3.73837e-08
3.26863e-06
5.81389e-08
3.26016e-06
-8.10997e-08
3.26019e-06
-9.63336e-08
3.24985e-06
-1.25336e-07
3.25161e-06
-1.50846e-08
3.25395e-06
8.67905e-08
3.26281e-06
1.351e-07
3.26661e-06
9.85325e-08
3.26837e-06
2.60656e-08
3.26796e-06
-3.06357e-08
3.26346e-06
-8.77591e-08
3.2558e-06
-1.37912e-07
3.25184e-06
-9.40973e-08
3.24968e-06
-7.87077e-08
3.24576e-06
-7.03872e-08
3.24815e-06
-2.12906e-08
3.2449e-06
-1.93169e-08
3.25017e-06
-6.41674e-09
3.24501e-06
1.05397e-08
3.25009e-06
-9.71719e-09
3.24309e-06
3.09405e-09
3.24696e-06
8.02292e-09
3.24056e-06
1.24728e-08
3.24249e-06
2.94975e-08
3.22175e-06
5.65761e-08
3.19787e-06
7.20372e-08
8.80856e-08
3.15642e-06
3.41109e-06
-1.36312e-07
3.42027e-06
3.48223e-08
3.41593e-06
4.17229e-08
3.42456e-06
4.95084e-08
3.41617e-06
-7.27143e-08
3.41584e-06
-9.60001e-08
3.406e-06
-1.15502e-07
3.40727e-06
-1.63521e-08
3.41003e-06
8.40321e-08
3.41845e-06
1.26682e-07
3.42249e-06
9.44878e-08
3.42408e-06
2.44767e-08
3.42372e-06
-3.02743e-08
3.41902e-06
-8.30568e-08
3.41196e-06
-1.30855e-07
3.407e-06
-8.91327e-08
3.40662e-06
-7.83281e-08
3.3998e-06
-6.3571e-08
3.40574e-06
-2.72286e-08
3.39879e-06
-1.23717e-08
3.40679e-06
-1.44144e-08
3.39942e-06
1.79059e-08
3.40622e-06
-1.65122e-08
3.39775e-06
1.15633e-08
3.40316e-06
2.61435e-09
3.39626e-06
1.9374e-08
3.40147e-06
2.42827e-08
3.37698e-06
8.10662e-08
3.34967e-06
9.93468e-08
1.31703e-07
3.30606e-06
3.5744e-06
-1.27305e-07
3.5839e-06
2.53218e-08
3.57954e-06
4.60857e-08
3.58786e-06
4.1186e-08
3.57973e-06
-6.45816e-08
3.57884e-06
-9.51117e-08
3.56969e-06
-1.06353e-07
3.57038e-06
-1.70367e-08
3.57353e-06
8.08774e-08
3.58171e-06
1.18499e-07
3.58552e-06
9.06851e-08
3.58769e-06
2.23079e-08
3.58621e-06
-2.87941e-08
3.58306e-06
-7.99155e-08
3.574e-06
-1.21793e-07
3.57218e-06
-8.7312e-08
3.56681e-06
-7.2958e-08
3.56744e-06
-6.42034e-08
3.56258e-06
-2.23644e-08
3.57011e-06
-1.99025e-08
3.55891e-06
-3.2159e-09
3.57503e-06
1.78722e-09
3.55636e-06
2.16056e-09
3.57498e-06
-7.05919e-09
3.55494e-06
2.26556e-08
3.56535e-06
8.96869e-09
3.55131e-06
3.83141e-08
3.5988e-06
3.35767e-08
3.6503e-06
4.78495e-08
4.44011e-08
3.7376e-06
3.74559e-06
-1.18185e-07
3.75526e-06
1.56439e-08
3.75114e-06
5.02056e-08
3.75889e-06
3.34444e-08
3.75121e-06
-5.69082e-08
3.74957e-06
-9.34705e-08
3.74127e-06
-9.80537e-08
3.74128e-06
-1.70484e-08
3.74492e-06
7.72386e-08
3.75274e-06
1.10678e-07
3.75654e-06
8.689e-08
3.75868e-06
2.01718e-08
3.75724e-06
-2.73597e-08
3.75364e-06
-7.63144e-08
3.74594e-06
-1.14091e-07
3.74178e-06
-8.31514e-08
3.74075e-06
-7.19274e-08
3.73329e-06
-5.67431e-08
3.74129e-06
-3.03675e-08
3.73072e-06
-9.33603e-09
3.7416e-06
-1.40908e-08
3.7327e-06
1.06839e-08
3.73846e-06
-3.59501e-09
3.7317e-06
-2.98492e-10
3.73827e-06
1.60789e-08
3.7312e-06
1.60422e-08
3.73262e-06
3.68939e-08
3.70923e-06
5.6962e-08
3.67875e-06
7.8338e-08
9.34731e-08
3.62967e-06
3.925e-06
-1.08997e-07
3.93468e-06
5.96422e-09
3.93113e-06
5.37596e-08
3.93797e-06
2.65958e-08
3.93099e-06
-4.99246e-08
3.92838e-06
-9.08616e-08
3.92107e-06
-9.07425e-08
3.92042e-06
-1.63949e-08
3.92452e-06
7.31347e-08
3.93198e-06
1.03219e-07
3.93578e-06
8.30923e-08
3.93775e-06
1.81975e-08
3.93652e-06
-2.61262e-08
3.9324e-06
-7.21924e-08
3.92582e-06
-1.07518e-07
3.92031e-06
-7.76428e-08
3.92097e-06
-7.25798e-08
3.91103e-06
-4.6806e-08
3.92299e-06
-4.23247e-08
3.90623e-06
7.42476e-09
3.92534e-06
-3.32045e-08
3.90576e-06
3.02666e-08
3.92538e-06
-2.32137e-08
3.90525e-06
1.98229e-08
3.92854e-06
-7.20437e-09
3.90911e-06
3.54718e-08
3.93061e-06
1.53869e-08
3.88521e-06
1.02371e-07
3.85282e-06
1.10728e-07
1.40896e-07
3.80539e-06
4.1131e-06
-9.98435e-08
4.12254e-06
-3.48091e-09
4.1199e-06
5.64051e-08
4.12557e-06
2.09257e-08
4.11946e-06
-4.3814e-08
4.11575e-06
-8.71547e-08
4.10937e-06
-8.43669e-08
4.10833e-06
-1.53514e-08
4.11255e-06
6.89132e-08
4.1201e-06
9.56724e-08
4.12313e-06
8.00656e-08
4.12607e-06
1.52558e-08
4.12335e-06
-2.3414e-08
4.12143e-06
-7.02685e-08
4.11124e-06
-9.73278e-08
4.11278e-06
-7.91867e-08
4.1008e-06
-6.05983e-08
4.11129e-06
-5.72966e-08
4.09441e-06
-2.54452e-08
4.11279e-06
-1.0946e-08
4.0929e-06
-1.33213e-08
4.11324e-06
9.92912e-09
4.09247e-06
-2.44796e-09
4.10933e-06
2.96201e-09
4.09277e-06
9.36456e-09
4.10981e-06
1.84305e-08
4.1013e-06
2.38898e-08
4.15303e-06
5.06458e-08
4.20452e-06
5.92359e-08
7.14637e-08
4.27395e-06
4.3103e-06
-9.08427e-08
4.31928e-06
-1.2463e-08
4.3178e-06
5.78865e-08
4.3221e-06
1.66317e-08
4.31699e-06
-3.87105e-08
4.31216e-06
-8.23251e-08
4.30665e-06
-7.88491e-08
4.30532e-06
-1.40235e-08
4.30968e-06
6.4554e-08
4.31695e-06
8.84006e-08
4.32015e-06
7.6864e-08
4.32232e-06
1.30819e-08
4.32064e-06
-2.17282e-08
4.31716e-06
-6.67895e-08
4.30951e-06
-8.9683e-08
4.30818e-06
-7.78502e-08
4.29881e-06
-5.12256e-08
4.3075e-06
-6.59946e-08
4.2909e-06
-8.83768e-09
4.31051e-06
-3.0564e-08
4.28827e-06
8.92275e-09
4.31104e-06
-1.2843e-08
4.2887e-06
1.989e-08
4.30832e-06
-1.66555e-08
4.2878e-06
2.98897e-08
4.30515e-06
1.07598e-09
4.30368e-06
2.53583e-08
4.35588e-06
-1.54833e-09
4.40405e-06
1.10649e-08
-9.60088e-09
4.48511e-06
4.51709e-06
-8.21558e-08
4.52521e-06
-2.05868e-08
4.52532e-06
5.77805e-08
4.52791e-06
1.40412e-08
4.52409e-06
-3.48924e-08
4.518e-06
-7.62334e-08
4.51346e-06
-7.43075e-08
4.51165e-06
-1.22217e-08
4.51646e-06
5.97507e-08
4.5229e-06
8.19581e-08
4.52698e-06
7.27788e-08
4.52762e-06
1.245e-08
4.5279e-06
-2.20125e-08
4.52138e-06
-6.02649e-08
4.51901e-06
-8.7319e-08
4.50918e-06
-6.80202e-08
4.51318e-06
-5.5225e-08
4.50266e-06
-5.54764e-08
4.51008e-06
-1.62559e-08
4.50183e-06
-2.23103e-08
4.50906e-06
1.69443e-09
4.50107e-06
-4.85283e-09
4.50767e-06
1.32884e-08
4.49878e-06
-7.77116e-09
4.50857e-06
2.01043e-08
4.5004e-06
9.24624e-09
4.50296e-06
2.28014e-08
4.47471e-06
2.6693e-08
4.43728e-06
4.84966e-08
4.72227e-08
4.38046e-06
4.73374e-06
-7.37787e-08
4.74106e-06
-2.79093e-08
4.7424e-06
5.64397e-08
4.74388e-06
1.25602e-08
4.74063e-06
-3.16386e-08
4.73438e-06
-6.99809e-08
4.72943e-06
-6.93622e-08
4.72861e-06
-1.13997e-08
4.73236e-06
5.59975e-08
4.73972e-06
7.4604e-08
4.74252e-06
6.99783e-08
4.74421e-06
1.0757e-08
4.74321e-06
-2.10108e-08
4.73789e-06
-5.49518e-08
4.73516e-06
-8.45828e-08
4.72442e-06
-5.72806e-08
4.73186e-06
-6.26687e-08
4.71523e-06
-3.88413e-08
4.73144e-06
-3.24721e-08
4.71241e-06
-3.27661e-09
4.73047e-06
-1.63655e-08
4.71325e-06
1.23627e-08
4.73058e-06
-4.03406e-09
4.71531e-06
7.49145e-09
4.73074e-06
4.67569e-09
4.70893e-06
3.10634e-08
4.70671e-06
2.50125e-08
4.68276e-06
5.06515e-08
4.67571e-06
5.55444e-08
8.11261e-08
4.6418e-06
4.96097e-06
-6.59488e-08
4.96675e-06
-3.36885e-08
4.97009e-06
5.30938e-08
4.96983e-06
1.28207e-08
4.96797e-06
-2.97799e-08
4.96053e-06
-6.25331e-08
4.95688e-06
-6.57131e-08
4.95462e-06
-9.13825e-09
4.96038e-06
5.02289e-08
4.96451e-06
7.04792e-08
4.97134e-06
6.31473e-08
4.96833e-06
1.37715e-08
4.97083e-06
-2.35185e-08
4.96401e-06
-4.81264e-08
4.96048e-06
-8.10536e-08
4.9539e-06
-5.06992e-08
4.95354e-06
-6.23086e-08
4.9469e-06
-3.22068e-08
4.95137e-06
-3.6937e-08
4.9449e-06
3.1949e-09
4.94996e-06
-2.14326e-08
4.9438e-06
1.8529e-08
4.9461e-06
-6.33584e-09
4.94178e-06
1.1812e-08
4.94429e-06
2.1612e-09
4.94539e-06
2.99643e-08
4.94229e-06
2.81174e-08
4.91294e-06
7.9996e-08
4.87001e-06
9.8477e-08
1.16337e-07
4.8348e-06
5.19897e-06
-5.86064e-08
5.20341e-06
-3.81256e-08
5.20789e-06
4.86131e-08
5.20747e-06
1.32472e-08
5.2052e-06
-2.75117e-08
5.19891e-06
-5.62418e-08
5.19343e-06
-6.02396e-08
5.19353e-06
-9.23738e-09
5.19684e-06
4.69167e-08
5.2037e-06
6.36245e-08
5.2062e-06
6.06483e-08
5.20927e-06
1.06976e-08
5.20281e-06
-1.70553e-08
5.20855e-06
-5.38683e-08
5.18756e-06
-6.00655e-08
5.20393e-06
-6.707e-08
5.17759e-06
-3.59706e-08
5.20052e-06
-5.51321e-08
5.17412e-06
-1.0537e-08
5.19688e-06
-1.95669e-08
5.1745e-06
9.46241e-10
5.19636e-06
-3.32809e-09
5.17467e-06
1.5358e-08
5.1891e-06
-2.62224e-09
5.16795e-06
2.33099e-08
5.18089e-06
1.703e-08
5.18584e-06
2.31616e-08
5.25835e-06
7.49044e-09
5.34372e-06
1.31059e-08
1.46059e-08
5.44545e-06
5.44859e-06
-5.20083e-08
5.45086e-06
-4.03966e-08
5.45729e-06
4.21821e-08
5.45598e-06
1.45607e-08
5.45455e-06
-2.60842e-08
5.44749e-06
-4.91756e-08
5.44344e-06
-5.61975e-08
5.44127e-06
-7.05991e-09
5.44798e-06
4.02039e-08
5.44956e-06
6.20448e-08
5.45908e-06
5.11267e-08
5.45255e-06
1.72324e-08
5.45761e-06
-2.21157e-08
5.44901e-06
-4.52687e-08
5.44675e-06
-5.7814e-08
5.44086e-06
-6.11743e-08
5.4379e-06
-3.30097e-08
5.43551e-06
-5.27482e-08
5.43411e-06
-9.13644e-09
5.43385e-06
-1.93061e-08
5.43331e-06
1.48877e-09
5.43121e-06
-1.22619e-09
5.4307e-06
1.58688e-08
5.42793e-06
1.41877e-10
5.43244e-06
1.88031e-08
5.42983e-06
1.96408e-08
5.41713e-06
3.58603e-08
5.39176e-06
3.2862e-08
5.35392e-06
5.09487e-08
5.06187e-08
5.3179e-06
5.71e-06
-4.60494e-08
5.71031e-06
-4.07085e-08
5.7179e-06
3.45905e-08
5.71715e-06
1.53158e-08
5.71488e-06
-2.38201e-08
5.70927e-06
-4.35625e-08
5.70361e-06
-5.05416e-08
5.70317e-06
-6.6184e-09
5.70812e-06
3.52605e-08
5.71153e-06
5.86284e-08
5.71839e-06
4.42677e-08
5.71451e-06
2.11191e-08
5.71763e-06
-2.52405e-08
5.70864e-06
-3.62824e-08
5.71003e-06
-5.91975e-08
5.6971e-06
-4.82514e-08
5.70546e-06
-4.13668e-08
5.68996e-06
-3.72513e-08
5.7008e-06
-1.99704e-08
5.69045e-06
-8.96143e-09
5.69745e-06
-5.50975e-09
5.69161e-06
4.61668e-09
5.69811e-06
9.37333e-09
5.68955e-06
8.6962e-09
5.69102e-06
1.73372e-08
5.67778e-06
3.28818e-08
5.67265e-06
4.09845e-08
5.65448e-06
5.10324e-08
5.63921e-06
6.62225e-08
7.47464e-08
5.61508e-06
5.98387e-06
-4.07267e-08
5.98247e-06
-3.9308e-08
5.99056e-06
2.64974e-08
5.99099e-06
1.48913e-08
5.98784e-06
-2.06718e-08
5.98316e-06
-3.8886e-08
5.97716e-06
-4.45407e-08
5.97659e-06
-6.04363e-09
5.9818e-06
3.00461e-08
5.9848e-06
5.56304e-08
5.99141e-06
3.76546e-08
5.98794e-06
2.4595e-08
5.99023e-06
-2.75357e-08
5.98226e-06
-2.83091e-08
5.98251e-06
-5.94528e-08
5.9712e-06
-3.69374e-08
5.97741e-06
-4.75738e-08
5.96391e-06
-2.37523e-08
5.97274e-06
-2.88049e-08
5.96479e-06
-1.01038e-09
5.96769e-06
-8.41092e-09
5.96544e-06
6.86743e-09
5.96905e-06
5.76557e-09
5.96386e-06
1.38841e-08
5.96314e-06
1.80577e-08
5.95169e-06
4.43361e-08
5.94518e-06
4.74906e-08
5.92699e-06
6.9219e-08
5.91376e-06
7.94589e-08
9.10499e-08
5.89745e-06
6.27104e-06
-3.62826e-08
6.26764e-06
-3.59039e-08
6.27675e-06
1.73892e-08
6.27703e-06
1.46083e-08
6.27496e-06
-1.86002e-08
6.26875e-06
-3.26745e-08
6.26548e-06
-4.12745e-08
6.26167e-06
-2.2309e-09
6.26955e-06
2.21623e-08
6.27059e-06
5.45965e-08
6.27781e-06
3.04314e-08
6.27488e-06
2.75253e-08
6.27491e-06
-2.75617e-08
6.27059e-06
-2.39957e-08
6.26598e-06
-5.48391e-08
6.26106e-06
-3.20237e-08
6.25966e-06
-4.6171e-08
6.253e-06
-1.70926e-08
6.2572e-06
-3.30022e-08
6.25138e-06
4.81202e-09
6.25437e-06
-1.14064e-08
6.24802e-06
1.32195e-08
6.25213e-06
1.65776e-09
6.2493e-06
1.67092e-08
6.25723e-06
1.01337e-08
6.25375e-06
4.78117e-08
6.24262e-06
5.8625e-08
6.20585e-06
1.05991e-07
6.15792e-06
1.2738e-07
1.15062e-07
6.13391e-06
6.57139e-06
-3.22006e-08
6.568e-06
-3.25215e-08
6.57453e-06
1.08671e-08
6.57889e-06
1.02403e-08
6.57303e-06
-1.27367e-08
6.57186e-06
-3.15026e-08
6.56244e-06
-3.18549e-08
6.5666e-06
-6.39551e-09
6.56442e-06
2.43511e-08
6.57742e-06
4.15951e-08
6.57003e-06
3.7816e-08
6.58221e-06
1.53481e-08
6.56741e-06
-1.27619e-08
6.57719e-06
-3.3774e-08
6.55865e-06
-3.62971e-08
6.56943e-06
-4.28117e-08
6.55082e-06
-2.75592e-08
6.5648e-06
-3.10668e-08
6.54707e-06
-1.52706e-08
6.5599e-06
-8.02444e-09
6.54584e-06
2.65811e-09
6.55764e-06
1.41766e-09
6.54448e-06
1.48188e-08
6.5476e-06
1.35896e-08
6.53614e-06
2.15945e-08
6.56357e-06
2.03763e-08
6.59589e-06
2.63109e-08
6.6785e-06
2.33815e-08
6.77919e-06
2.66833e-08
4.66148e-08
6.84764e-06
6.88663e-06
-2.90421e-08
6.88139e-06
-2.72796e-08
6.88924e-06
3.01487e-09
6.89132e-06
8.15771e-09
6.89051e-06
-1.1918e-08
6.88249e-06
-2.34912e-08
6.88293e-06
-3.22903e-08
6.87503e-06
1.50304e-09
6.88629e-06
1.30975e-08
6.88327e-06
4.46144e-08
6.89478e-06
2.63061e-08
6.88507e-06
2.50518e-08
6.89388e-06
-2.15724e-08
6.87808e-06
-1.79676e-08
6.88682e-06
-4.5045e-08
6.8698e-06
-2.57858e-08
6.8788e-06
-3.65644e-08
6.86713e-06
-1.93966e-08
6.87111e-06
-1.92516e-08
6.86361e-06
-5.20031e-10
6.86777e-06
-1.50151e-09
6.86148e-06
7.70329e-09
6.8721e-06
4.19824e-09
6.87819e-06
7.50028e-09
6.89004e-06
9.74322e-09
6.87868e-06
3.17412e-08
6.85562e-06
4.9368e-08
6.8081e-06
7.08999e-08
6.74596e-06
8.88268e-08
6.58958e-08
6.72668e-06
7.21572e-06
-2.56245e-08
7.21238e-06
-2.39434e-08
7.2151e-06
2.9678e-10
7.2227e-06
5.56024e-10
7.21712e-06
-6.3404e-09
7.21656e-06
-2.29247e-08
7.20661e-06
-2.23448e-08
7.2132e-06
-5.08513e-09
7.20549e-06
2.08075e-08
7.22562e-06
2.44851e-08
7.20826e-06
4.36642e-08
7.23097e-06
2.34024e-09
7.20403e-06
5.37515e-09
7.22608e-06
-4.00227e-08
7.19879e-06
-1.7755e-08
7.21568e-06
-4.26772e-08
7.19586e-06
-1.67402e-08
7.2069e-06
-3.04364e-08
7.19191e-06
-4.25832e-09
7.20253e-06
-1.11457e-08
7.19204e-06
8.98705e-09
7.19832e-06
1.42988e-09
7.18494e-06
1.75756e-08
7.18682e-06
5.61467e-09
7.18727e-06
9.29642e-09
7.2169e-06
2.11423e-09
7.26122e-06
5.04941e-09
7.34806e-06
-1.59402e-08
7.45127e-06