/*--------------------------------*- C++ -*----------------------------------*\
| =========                 |                                                 |
| \\      /  F ield         | OpenFOAM: The Open Source CFD Toolbox           |
|  \\    /   O peration     | Version:  v2006                                 |
|   \\  /    A nd           | Website:  www.openfoam.com                      |
|    \\/     M anipulation  |                                                 |
\*---------------------------------------------------------------------------*/
FoamFile
{
    version     2.0;
    format      ascii;
    class       volVectorField;
    location    "0.2";
    object      U;
}
// * * * * * * * * * * * * * * * * * * * * * * * * * * * * * * * * * * * * * //

dimensions      [0 1 -1 0 0 0 0];


internalField   nonuniform List<vector> 
26400
(
(0.91348 -0.00367828 0)
(1.08737 0.00235299 0)
(0.916368 0.000402699 0)
(1.08428 0.00293321 0)
(0.920223 -0.00323033 0)
(1.08874 -0.00209968 0)
(0.926343 -0.00573773 0)
(1.08582 0.000848399 0)
(0.923267 0.00312017 0)
(1.08086 0.0072411 0)
(0.926085 0.00308971 0)
(1.07814 0.0017027 0)
(0.929362 -0.00170408 0)
(1.08719 -0.00533904 0)
(0.928045 -0.00973912 0)
(1.08396 -0.00277655 0)
(0.93637 -0.00372414 0)
(1.08529 -0.00346606 0)
(0.931685 0.000562511 0)
(1.08971 -0.000516272 0)
(0.927785 0.00126681 0)
(1.09371 0.00133555 0)
(0.929886 -0.00185364 0)
(1.09422 0.00022547 0)
(0.932079 -0.00204896 0)
(1.09708 -0.00176387 0)
(0.927932 -0.00351088 0)
(1.09835 -0.00100273 0)
(0.91989 -0.000567053 0)
(1.09799 0.000439816 0)
(0.920182 -0.0037233 0)
(1.08133 0.00238132 0)
(0.924952 0.000353832 0)
(1.07736 0.00297264 0)
(0.930439 -0.0033667 0)
(1.08061 -0.00209631 0)
(0.936436 -0.00580122 0)
(1.07801 0.000970723 0)
(0.934672 0.00311736 0)
(1.07111 0.00730102 0)
(0.94138 0.00302503 0)
(1.0652 0.0017611 0)
(0.947096 -0.00199507 0)
(1.06986 -0.0052099 0)
(0.946398 -0.00976299 0)
(1.06595 -0.00286266 0)
(0.956844 -0.00389496 0)
(1.06518 -0.00321474 0)
(0.95591 0.000305575 0)
(1.06476 -0.000210105 0)
(0.958421 0.000978932 0)
(1.06164 0.0014158 0)
(0.968639 -0.00196144 0)
(1.0539 0.000213879 0)
(0.979813 -0.00218303 0)
(1.04609 -0.00164045 0)
(0.988467 -0.00346702 0)
(1.03304 -0.000800335 0)
(0.997768 0.0001226 0)
(1.01352 0.0017171 0)
(0.932298 -0.00376885 0)
(1.06906 0.00238861 0)
(0.939914 0.000326005 0)
(1.06433 0.00298356 0)
(0.946785 -0.0034801 0)
(1.06541 -0.00209262 0)
(0.952942 -0.0058405 0)
(1.06236 0.00106946 0)
(0.954516 0.00314448 0)
(1.05446 0.00728725 0)
(0.964234 0.00304052 0)
(1.04606 0.00173274 0)
(0.97042 -0.0021296 0)
(1.04586 -0.00511802 0)
(0.969638 -0.00972083 0)
(1.04032 -0.00306903 0)
(0.981586 -0.00390544 0)
(1.03865 -0.00319392 0)
(0.983929 0.000293309 0)
(1.03666 -0.00027515 0)
(0.989273 0.0010126 0)
(1.03206 0.00113712 0)
(0.998935 -0.00169124 0)
(1.02482 -0.000246274 0)
(1.00587 -0.00187954 0)
(1.02038 -0.00196371 0)
(1.009 -0.00299452 0)
(1.01359 -0.00105929 0)
(1.0095 0.000562069 0)
(1.00798 0.0038758 0)
(0.947641 -0.00379481 0)
(1.05261 0.00234216 0)
(0.957284 0.000326607 0)
(1.04785 0.00295331 0)
(0.964525 -0.00352486 0)
(1.04651 -0.0021198 0)
(0.970189 -0.00583744 0)
(1.04295 0.00106345 0)
(0.97514 0.00320748 0)
(1.03703 0.00718752 0)
(0.985121 0.00313193 0)
(1.02833 0.00166999 0)
(0.989148 -0.00210646 0)
(1.02488 -0.00507797 0)
(0.986372 -0.0095875 0)
(1.01897 -0.00333786 0)
(0.997285 -0.0038788 0)
(1.01895 -0.00329238 0)
(1.00015 0.000335108 0)
(1.01957 -0.000418313 0)
(1.0045 0.00112667 0)
(1.01779 0.00087265 0)
(1.0098 -0.00144463 0)
(1.01385 -0.000456628 0)
(1.01116 -0.00171326 0)
(1.01284 -0.00209158 0)
(1.0103 -0.00272935 0)
(1.00948 -0.00096308 0)
(1.0084 0.000958507 0)
(1.00748 0.00589537 0)
(0.963365 -0.00379531 0)
(1.03535 0.0022518 0)
(0.973199 0.000345423 0)
(1.03157 0.00289824 0)
(0.979563 -0.0035135 0)
(1.02851 -0.00216744 0)
(0.983464 -0.00580383 0)
(1.02491 0.000974593 0)
(0.990429 0.00325596 0)
(1.02343 0.00705711 0)
(0.998788 0.00325231 0)
(1.01627 0.00162866 0)
(0.999557 -0.002009 0)
(1.01153 -0.00500687 0)
(0.993973 -0.00942788 0)
(1.0062 -0.00360717 0)
(1.00264 -0.00388642 0)
(1.00824 -0.00339485 0)
(1.00508 0.000293438 0)
(1.01187 -0.000503523 0)
(1.00829 0.00109681 0)
(1.01234 0.000801038 0)
(1.01077 -0.00138042 0)
(1.00975 -0.000420695 0)
(1.00957 -0.00180555 0)
(1.00922 -0.00181328 0)
(1.00755 -0.00289822 0)
(1.00659 -0.000412703 0)
(1.0059 0.000245483 0)
(1.0056 0.00814327 0)
(0.976936 -0.0037704 0)
(1.02047 0.00214333 0)
(0.985187 0.000369422 0)
(1.01849 0.00283574 0)
(0.989906 -0.00346454 0)
(1.01475 -0.00220641 0)
(0.991177 -0.00575139 0)
(1.0114 0.000843103 0)
(0.998547 0.00324673 0)
(1.01471 0.00693192 0)
(1.00517 0.00336147 0)
(1.00977 0.00162458 0)
(1.00349 -0.00187498 0)
(1.00496 -0.00488779 0)
(0.995905 -0.00926331 0)
(0.999919 -0.00384715 0)
(1.00241 -0.0039153 0)
(1.00283 -0.00350506 0)
(1.00452 0.00019428 0)
(1.00803 -0.00059406 0)
(1.00736 0.00103864 0)
(1.0093 0.000757442 0)
(1.0087 -0.00126583 0)
(1.00675 -0.000426366 0)
(1.00657 -0.00171714 0)
(1.00579 -0.00176431 0)
(1.00417 -0.00265883 0)
(1.00323 -0.00032097 0)
(1.00304 0.00131145 0)
(1.00288 0.00564958 0)
(0.986961 -0.00372519 0)
(1.00971 0.00203966 0)
(0.992675 0.000385372 0)
(1.00978 0.00277749 0)
(0.995791 -0.003394 0)
(1.00618 -0.00221891 0)
(0.994454 -0.00568575 0)
(1.00283 0.000697201 0)
(1.00104 0.00317561 0)
(1.00953 0.00681316 0)
(1.00683 0.00344411 0)
(1.00669 0.0016459 0)
(1.00427 -0.00172844 0)
(1.00244 -0.0047439 0)
(0.995981 -0.00907688 0)
(0.997004 -0.0040559 0)
(1.00057 -0.00393965 0)
(0.99966 -0.00362966 0)
(1.00228 8.8422e-05 0)
(1.0052 -0.000721215 0)
(1.00498 0.00103194 0)
(1.00653 0.000659707 0)
(1.00596 -0.00103703 0)
(1.00384 -0.00050668 0)
(1.00346 -0.00148007 0)
(1.00254 -0.00190022 0)
(1.00087 -0.00213372 0)
(1.00003 -0.000545579 0)
(0.99975 0.00272521 0)
(1.00012 0.00407104 0)
(0.993366 -0.0036671 0)
(1.0031 0.00195316 0)
(0.996521 0.000387751 0)
(1.00492 0.00272579 0)
(0.998633 -0.00331411 0)
(1.00181 -0.00220432 0)
(0.995369 -0.00560494 0)
(0.997975 0.000557389 0)
(1.00049 0.00306509 0)
(1.00621 0.00668893 0)
(1.00633 0.0034965 0)
(1.00518 0.00166858 0)
(1.00408 -0.00159138 0)
(1.00184 -0.0045897 0)
(0.996055 -0.00886614 0)
(0.995637 -0.0042203 0)
(0.998819 -0.00395648 0)
(0.997489 -0.00372905 0)
(0.999834 -4.98607e-05 0)
(1.00266 -0.00078593 0)
(1.00232 0.000922233 0)
(1.00379 0.000699673 0)
(1.00326 -0.00102179 0)
(1.00116 -0.000327329 0)
(1.00069 -0.0016138 0)
(0.999776 -0.00138665 0)
(0.998042 -0.002589 0)
(0.997277 0.000277122 0)
(0.996923 0.00126785 0)
(0.997519 0.00949605 0)
(0.99695 -0.00360205 0)
(0.999633 0.0018855 0)
(0.998094 0.000378071 0)
(1.0026 0.00267509 0)
(0.999869 -0.00323166 0)
(1.00002 -0.00217089 0)
(0.995511 -0.00550334 0)
(0.995405 0.000437256 0)
(0.998938 0.00294097 0)
(1.00381 0.00654871 0)
(1.0052 0.00351683 0)
(1.00432 0.00167526 0)
(1.00379 -0.00147411 0)
(1.00201 -0.00443933 0)
(0.996501 -0.00862838 0)
(0.995023 -0.00433209 0)
(0.997547 -0.00396155 0)
(0.995938 -0.00378355 0)
(0.99768 -0.000203528 0)
(1.00039 -0.000821826 0)
(0.999844 0.000802663 0)
(1.00125 0.000739012 0)
(1.00091 -0.000984811 0)
(0.998872 -0.000195787 0)
(0.9985 -0.00156844 0)
(0.997576 -0.00119967 0)
(0.995951 -0.00244231 0)
(0.995094 0.000339425 0)
(0.995067 0.000973143 0)
(0.995239 0.00911224 0)
(0.998745 -0.00353297 0)
(0.998042 0.00183168 0)
(0.998554 0.000360827 0)
(1.00161 0.00261829 0)
(1.00041 -0.00314849 0)
(0.999493 -0.00212859 0)
(0.995605 -0.00537739 0)
(0.994103 0.000340012 0)
(0.997425 0.00282313 0)
(1.002 0.00638364 0)
(1.0041 0.00351375 0)
(1.00372 0.00164931 0)
(1.00357 -0.00136472 0)
(1.00237 -0.00432227 0)
(0.997143 -0.00833495 0)
(0.9948 -0.00443476 0)
(0.996708 -0.00389011 0)
(0.994857 -0.0038785 0)
(0.995961 -0.000237753 0)
(0.998481 -0.000969932 0)
(0.99778 0.000847578 0)
(0.999086 0.000590736 0)
(0.999058 -0.000696645 0)
(0.997076 -0.000390453 0)
(0.996898 -0.00107529 0)
(0.996022 -0.00163523 0)
(0.994533 -0.00132564 0)
(0.993607 -0.000759232 0)
(0.993524 0.00239629 0)
(0.99376 0.00161412 0)
(0.999582 -0.00346065 0)
(0.997388 0.0017849 0)
(0.998602 0.00034096 0)
(1.00119 0.00255175 0)
(1.00067 -0.00306469 0)
(0.999437 -0.00208414 0)
(0.995799 -0.00523008 0)
(0.99349 0.000265913 0)
(0.996322 0.00271606 0)
(1.00068 0.00620127 0)
(1.00322 0.00348245 0)
(1.00328 0.0016085 0)
(1.00339 -0.00128879 0)
(1.00268 -0.00419698 0)
(0.997757 -0.00805388 0)
(0.994773 -0.00444476 0)
(0.996179 -0.00387013 0)
(0.994156 -0.00382952 0)
(0.9947 -0.000404405 0)
(0.997033 -0.000888951 0)
(0.996197 0.00061542 0)
(0.997428 0.000760679 0)
(0.997669 -0.00082506 0)
(0.995819 -0.000142823 0)
(0.995765 -0.00118084 0)
(0.995079 -0.00126953 0)
(0.993605 -0.00126707 0)
(0.992781 -0.000435444 0)
(0.992184 0.00233317 0)
(0.993128 0.000838391 0)
(0.999966 -0.00338487 0)
(0.997138 0.00173946 0)
(0.998555 0.000322618 0)
(1.00096 0.00247456 0)
(1.00079 -0.00297861 0)
(0.999492 -0.00204238 0)
(0.996035 -0.00506474 0)
(0.993256 0.00020937 0)
(0.995652 0.00262245 0)
(0.999792 0.00600395 0)
(1.00257 0.00343349 0)
(1.00292 0.00154968 0)
(1.0032 -0.00122501 0)
(1.00284 -0.0040929 0)
(0.998227 -0.0077373 0)
(0.994829 -0.00445408 0)
(0.995873 -0.00377496 0)
(0.993741 -0.00385028 0)
(0.993879 -0.000400074 0)
(0.99603 -0.00101517 0)
(0.995124 0.000668553 0)
(0.996253 0.000590666 0)
(0.996731 -0.000596637 0)
(0.994993 -0.000314214 0)
(0.99505 -0.000827999 0)
(0.99452 -0.00140016 0)
(0.993144 -0.000839222 0)
(0.992357 -0.000117827 0)
(0.991663 0.00208126 0)
(0.993021 0.00572337 0)
(1.00015 -0.00330517 0)
(0.997052 0.0016915 0)
(0.998514 0.000308409 0)
(1.0008 0.0023876 0)
(1.00083 -0.00288871 0)
(0.999542 -0.00200536 0)
(0.996241 -0.00488514 0)
(0.993235 0.00016295 0)
(0.995308 0.00254435 0)
(0.999252 0.00578981 0)
(1.00211 0.00338045 0)
(1.00263 0.00146978 0)
(1.00299 -0.00115973 0)
(1.00286 -0.00400974 0)
(0.998518 -0.00740498 0)
(0.994941 -0.00443116 0)
(0.995694 -0.00369474 0)
(0.993572 -0.00378838 0)
(0.993395 -0.000501425 0)
(0.995441 -0.000925757 0)
(0.994462 0.000444828 0)
(0.995524 0.000744006 0)
(0.996122 -0.000851162 0)
(0.994535 4.92097e-06 0)
(0.994602 -0.00123943 0)
(0.994248 -0.000637527 0)
(0.992966 -0.00144435 0)
(0.992204 0.00165722 0)
(0.991863 0.000284767 0)
(0.992976 0.0109271 0)
(1.00023 -0.00322121 0)
(0.997042 0.00163872 0)
(0.998495 0.000299658 0)
(1.00069 0.00229228 0)
(1.0008 -0.00279342 0)
(0.999568 -0.0019747 0)
(0.996393 -0.00469252 0)
(0.993332 0.000117535 0)
(0.995178 0.0024817 0)
(0.998962 0.00556289 0)
(1.00177 0.00332345 0)
(1.00241 0.00138257 0)
(1.00277 -0.00110717 0)
(1.00278 -0.00391784 0)
(0.998665 -0.0070891 0)
(0.995082 -0.00437551 0)
(0.995603 -0.00361467 0)
(0.993559 -0.00370796 0)
(0.993181 -0.000565553 0)
(0.995145 -0.000906334 0)
(0.99413 0.0003573 0)
(0.995101 0.000715168 0)
(0.99578 -0.000779516 0)
(0.994286 -5.41877e-05 0)
(0.994386 -0.000847831 0)
(0.994118 -0.000980471 0)
(0.993036 -0.000372281 0)
(0.992157 0.000690913 0)
(0.992418 0.00278197 0)
(0.993389 0.00549499 0)
(1.00027 -0.00313261 0)
(0.997073 0.0015791 0)
(0.998491 0.000297824 0)
(1.0006 0.00218923 0)
(1.00074 -0.00269217 0)
(0.999574 -0.0019468 0)
(0.996501 -0.00449802 0)
(0.99349 8.63993e-05 0)
(0.99518 0.00240668 0)
(0.998829 0.00535699 0)
(1.00153 0.00323331 0)
(1.00223 0.00132651 0)
(1.00256 -0.00109335 0)
(1.00265 -0.00379108 0)
(0.998719 -0.00680506 0)
(0.995247 -0.00427705 0)
(0.995554 -0.0035533 0)
(0.993669 -0.00361864 0)
(0.993108 -0.000594459 0)
(0.995078 -0.000964935 0)
(0.993978 0.000371346 0)
(0.99493 0.000558815 0)
(0.995557 -0.000507552 0)
(0.994264 -0.000277455 0)
(0.994171 -0.000204873 0)
(0.994219 -0.00155472 0)
(0.992981 0.00101295 0)
(0.992557 -0.000455345 0)
(0.992265 0.00545152 0)
(0.99376 0.00070909 0)
(1.00027 -0.00303874 0)
(0.997128 0.00151059 0)
(0.998496 0.000304691 0)
(1.00052 0.00207662 0)
(1.00066 -0.00257948 0)
(0.999564 -0.00193251 0)
(0.996589 -0.00428094 0)
(0.993668 2.54087e-05 0)
(0.995264 0.00238128 0)
(0.998773 0.00508491 0)
(1.00136 0.0032131 0)
(1.00204 0.00118601 0)
(1.0024 -0.000990154 0)
(1.00245 -0.00376247 0)
(0.998768 -0.00642237 0)
(0.995364 -0.00426353 0)
(0.995602 -0.00341172 0)
(0.993757 -0.00357518 0)
(0.993222 -0.000630813 0)
(0.995025 -0.000909125 0)
(0.99405 0.00017753 0)
(0.994769 0.000688387 0)
(0.995548 -0.00080399 0)
(0.994191 3.39278e-05 0)
(0.994167 -0.000711644 0)
(0.994247 -0.000647458 0)
(0.993186 0.000377852 0)
(0.992792 0.0014745 0)
(0.992515 0.00420709 0)
(0.994459 0.00609804 0)
(1.00026 -0.002941 0)
(0.997197 0.00143608 0)
(0.998506 0.000315994 0)
(1.00046 0.00196257 0)
(1.00058 -0.00246774 0)
(0.999554 -0.00190884 0)
(0.996658 -0.00407997 0)
(0.993869 -2.42899e-06 0)
(0.995376 0.0023061 0)
(0.99877 0.00488586 0)
(1.00122 0.00309325 0)
(1.00187 0.00116268 0)
(1.00224 -0.0010275 0)
(1.00224 -0.00356563 0)
(0.998793 -0.00622627 0)
(0.995486 -0.00406261 0)
(0.995657 -0.00343118 0)
(0.993887 -0.00337677 0)
(0.993365 -0.000737815 0)
(0.995052 -0.000818337 0)
(0.994155 8.0436e-05 0)
(0.994697 0.000657429 0)
(0.995537 -0.000788605 0)
(0.994208 3.25845e-05 0)
(0.99417 -0.000612149 0)
(0.994348 -0.000335436 0)
(0.993409 0.000432788 0)
(0.993135 0.00209611 0)
(0.993104 0.0041981 0)
(0.994578 0.0108484 0)
(1.00025 -0.00283617 0)
(0.997277 0.00134689 0)
(0.998513 0.00034422 0)
(1.0004 0.00182881 0)
(1.00049 -0.00233133 0)
(0.999553 -0.00191273 0)
(0.996709 -0.00384519 0)
(0.994094 -6.89002e-05 0)
(0.995484 0.00228294 0)
(0.998812 0.00461852 0)
(1.00107 0.00305829 0)
(1.00173 0.00104147 0)
(1.00206 -0.000951492 0)
(1.00206 -0.00349594 0)
(0.998791 -0.00589059 0)
(0.995621 -0.0039928 0)
(0.995716 -0.00331389 0)
(0.994036 -0.00330714 0)
(0.993521 -0.00075051 0)
(0.995115 -0.000870201 0)
(0.994272 6.1482e-05 0)
(0.994673 0.000523444 0)
(0.995546 -0.000551312 0)
(0.994253 -0.00017312 0)
(0.994197 -0.000115177 0)
(0.99446 -0.000494456 0)
(0.993651 0.0011364 0)
(0.993478 0.00183193 0)
(0.994119 0.00384631 0)
(0.995019 0.00601904 0)
(1.00023 -0.00272834 0)
(0.99736 0.00125352 0)
(0.998525 0.000372617 0)
(1.00035 0.00170187 0)
(1.00041 -0.00220481 0)
(0.999544 -0.00190144 0)
(0.996769 -0.00362663 0)
(0.994316 -0.000127577 0)
(0.995607 0.0022474 0)
(0.998863 0.00436902 0)
(1.00092 0.0029911 0)
(1.00162 0.000964888 0)
(1.00186 -0.000938868 0)
(1.0019 -0.00336191 0)
(0.998755 -0.0056196 0)
(0.99579 -0.00387721 0)
(0.995741 -0.00322089 0)
(0.994228 -0.0032522 0)
(0.993645 -0.000711073 0)
(0.995226 -0.00100577 0)
(0.994368 0.000171496 0)
(0.994708 0.000249039 0)
(0.995509 -0.000133781 0)
(0.99437 -0.000606404 0)
(0.994193 0.000536971 0)
(0.994652 -0.000782644 0)
(0.993851 0.0018879 0)
(0.993707 0.00184803 0)
(0.99391 0.00374822 0)
(0.995606 0.00180584 0)
(1.00022 -0.0026154 0)
(0.997437 0.00114893 0)
(0.998551 0.00041244 0)
(1.00027 0.00156509 0)
(1.00036 -0.00206617 0)
(0.999484 -0.00188824 0)
(0.996891 -0.00342041 0)
(0.994474 -0.000145704 0)
(0.995799 0.00216118 0)
(0.998858 0.00418296 0)
(1.00083 0.00285809 0)
(1.00146 0.000953598 0)
(1.00171 -0.000969938 0)
(1.0017 -0.0031643 0)
(0.998772 -0.00543089 0)
(0.995898 -0.0036674 0)
(0.995831 -0.0032381 0)
(0.994364 -0.00301969 0)
(0.993828 -0.000861092 0)
(0.995299 -0.000829948 0)
(0.994506 -0.000114362 0)
(0.994722 0.000486987 0)
(0.995525 -0.000470931 0)
(0.994443 -0.000183548 0)
(0.99427 0.000185763 0)
(0.994781 -9.60439e-05 0)
(0.994192 0.00149492 0)
(0.993898 0.00296189 0)
(0.994202 0.00458804 0)
(0.996539 0.00677728 0)
(1.0002 -0.00249204 0)
(0.997528 0.00102211 0)
(0.998566 0.000476833 0)
(1.0002 0.00140037 0)
(1.00031 -0.00189324 0)
(0.999426 -0.00192897 0)
(0.997013 -0.00313894 0)
(0.99464 -0.000274498 0)
(0.995976 0.00221976 0)
(0.998872 0.00382537 0)
(1.00072 0.00290218 0)
(1.00131 0.000754052 0)
(1.00154 -0.000830616 0)
(1.00152 -0.00315216 0)
(0.998772 -0.00504162 0)
(0.996029 -0.00366903 0)
(0.995894 -0.00301301 0)
(0.994526 -0.00306871 0)
(0.994 -0.000771813 0)
(0.995369 -0.000812106 0)
(0.994665 -0.000192789 0)
(0.99472 0.000677797 0)
(0.99555 -0.00085633 0)
(0.994541 0.000344254 0)
(0.994339 -0.000227236 0)
(0.994948 0.000723793 0)
(0.994533 0.000728752 0)
(0.994362 0.00407795 0)
(0.994798 0.00530789 0)
(0.996431 0.0120582 0)
(1.00016 -0.00237792 0)
(0.997647 0.000915714 0)
(0.998558 0.000508444 0)
(1.00017 0.00128659 0)
(1.00023 -0.00178836 0)
(0.999407 -0.00186652 0)
(0.997109 -0.00300444 0)
(0.994831 -0.000204927 0)
(0.996137 0.00202186 0)
(0.998908 0.00378238 0)
(1.0006 0.00259201 0)
(1.00117 0.000941603 0)
(1.00137 -0.00108552 0)
(1.00135 -0.00274333 0)
(0.998765 -0.00506292 0)
(0.996159 -0.00324559 0)
(0.995955 -0.00322288 0)
(0.994702 -0.00267222 0)
(0.994173 -0.00105446 0)
(0.995465 -0.000666603 0)
(0.994811 -0.000374326 0)
(0.994721 0.000643987 0)
(0.995592 -0.000620641 0)
(0.994647 0.000186354 0)
(0.994444 0.000181182 0)
(0.995054 0.000710943 0)
(0.99494 0.00155064 0)
(0.994911 0.00359599 0)
(0.995981 0.00448997 0)
(0.996738 0.00604369 0)
(1.00013 -0.00223447 0)
(0.997764 0.000749153 0)
(0.998558 0.000618398 0)
(1.00015 0.00106948 0)
(1.00013 -0.00155057 0)
(0.999423 -0.00197008 0)
(0.997174 -0.00266122 0)
(0.995048 -0.00040029 0)
(0.996292 0.00215908 0)
(0.998953 0.00333298 0)
(1.00048 0.00275806 0)
(1.00104 0.000596806 0)
(1.0012 -0.000704588 0)
(1.0012 -0.00299871 0)
(0.998742 -0.00437509 0)
(0.996313 -0.00361463 0)
(0.995992 -0.00256394 0)
(0.99491 -0.00317857 0)
(0.994298 -0.000367703 0)
(0.995592 -0.00148305 0)
(0.994923 0.000330528 0)
(0.994818 -0.000246874 0)
(0.995565 0.000307788 0)
(0.994822 -0.000710269 0)
(0.994517 0.00128428 0)
(0.995355 -0.000218027 0)
(0.995181 0.00302498 0)
(0.995097 0.00237917 0)
(0.995378 0.00516126 0)
(0.997391 0.00123589 0)
(1.00012 -0.00212784 0)
(0.997844 0.000647381 0)
(0.998606 0.00063893 0)
(1.00007 0.000989423 0)
(1.00009 -0.00147922 0)
(0.999404 -0.00185821 0)
(0.99727 -0.00257742 0)
(0.995235 -0.000285496 0)
(0.996485 0.00192571 0)
(0.998964 0.00331571 0)
(1.0004 0.00243149 0)
(1.00087 0.000798041 0)
(1.00107 -0.00102776 0)
(1.00101 -0.00248714 0)
(0.998763 -0.00455174 0)
(0.99641 -0.00296565 0)
(0.996096 -0.00310174 0)
(0.995059 -0.00230717 0)
(0.994496 -0.00135463 0)
(0.995663 -0.000226305 0)
(0.995102 -0.000965544 0)
(0.99483 0.00134292 0)
(0.995641 -0.00136261 0)
(0.994942 0.00113254 0)
(0.994657 -0.000335865 0)
(0.995521 0.00176398 0)
(0.995588 0.000578279 0)
(0.995496 0.00512346 0)
(0.995831 0.00514266 0)
(0.997651 0.0128922 0)
(1.0001 -0.00195684 0)
(0.997951 0.000442924 0)
(0.998631 0.000772462 0)
(1.00002 0.000757647 0)
(1.00002 -0.00123715 0)
(0.999406 -0.00194919 0)
(0.997348 -0.00227006 0)
(0.99545 -0.000425519 0)
(0.996648 0.00196978 0)
(0.999009 0.00299746 0)
(1.0003 0.00244825 0)
(1.00073 0.000621696 0)
(1.00092 -0.000863596 0)
(1.00085 -0.00250077 0)
(0.998768 -0.00415181 0)
(0.996527 -0.00300839 0)
(0.996181 -0.00280077 0)
(0.995213 -0.00242579 0)
(0.994712 -0.00105675 0)
(0.99573 -0.000671818 0)
(0.99532 -0.00054971 0)
(0.994836 0.000616207 0)
(0.995697 -0.000562694 0)
(0.995106 0.000192319 0)
(0.9948 0.000616704 0)
(0.995634 0.000972849 0)
(0.99608 0.00192537 0)
(0.996231 0.00370005 0)
(0.997415 0.00468196 0)
(0.99779 0.00621042 0)
(1.0001 -0.00187111 0)
(0.998045 0.000361907 0)
(0.998667 0.00077395 0)
(0.999977 0.000708901 0)
(0.999945 -0.00118133 0)
(0.999416 -0.00182293 0)
(0.997432 -0.00218509 0)
(0.995661 -0.000334189 0)
(0.996811 0.00181956 0)
(0.999071 0.00284591 0)
(1.00019 0.00233312 0)
(1.00061 0.000564642 0)
(1.00076 -0.000719661 0)
(1.00072 -0.00256047 0)
(0.99874 -0.0036458 0)
(0.996681 -0.00320673 0)
(0.996227 -0.00230715 0)
(0.99544 -0.00275062 0)
(0.994823 -0.000565667 0)
(0.995892 -0.00127086 0)
(0.995406 0.00034831 0)
(0.994983 -0.000535108 0)
(0.99567 0.000871664 0)
(0.995337 -0.00106991 0)
(0.994919 0.00216614 0)
(0.995973 -0.000183155 0)
(0.996305 0.00383447 0)
(0.996283 0.00219643 0)
(0.996525 0.00512466 0)
(0.998438 -0.000373421 0)
(1.00015 -0.00166893 0)
(0.99808 0.000114091 0)
(0.998757 0.000929222 0)
(0.999877 0.000460564 0)
(0.999927 -0.000926571 0)
(0.999367 -0.00190715 0)
(0.997585 -0.00189671 0)
(0.9958 -0.000449222 0)
(0.997045 0.00181934 0)
(0.999065 0.00260038 0)
(1.00016 0.00224817 0)
(1.00041 0.000500353 0)
(1.00067 -0.000802548 0)
(1.00053 -0.00225038 0)
(0.998799 -0.00369656 0)
(0.996742 -0.00264103 0)
(0.996381 -0.00283963 0)
(0.995538 -0.00173153 0)
(0.995081 -0.00187005 0)
(0.995989 0.000364596 0)
(0.995588 -0.00160979 0)
(0.995062 0.00151243 0)
(0.995747 -0.00122577 0)
(0.995512 0.00105996 0)
(0.995136 -0.000304411 0)
(0.996152 0.0021159 0)
(0.996775 0.000993159 0)
(0.9967 0.00589436 0)
(0.99687 0.00630196 0)
(0.99869 0.0126035 0)
(1.00016 -0.00159359 0)
(0.998153 4.53375e-05 0)
(0.998819 0.000880999 0)
(0.999813 0.00047806 0)
(0.999888 -0.000959942 0)
(0.999354 -0.00166766 0)
(0.997703 -0.00193639 0)
(0.99598 -0.000242902 0)
(0.997244 0.00154173 0)
(0.999105 0.00257477 0)
(1.0001 0.00201895 0)
(1.00026 0.000584634 0)
(1.00057 -0.000864071 0)
(1.00037 -0.00201902 0)
(0.998847 -0.00355999 0)
(0.996806 -0.0024482 0)
(0.996541 -0.00278258 0)
(0.99563 -0.00159029 0)
(0.995362 -0.00189482 0)
(0.995987 0.000486839 0)
(0.995849 -0.00173239 0)
(0.995113 0.00169089 0)
(0.995821 -0.00137883 0)
(0.995603 0.00137727 0)
(0.995385 -0.00068022 0)
(0.996356 0.00236633 0)
(0.997487 0.0003599 0)
(0.997778 0.00558837 0)
(0.998589 0.0058128 0)
(0.998008 0.0124631 0)
(1.00015 -0.00141849 0)
(0.99828 -0.00014782 0)
(0.998842 0.00100648 0)
(0.9998 0.000290871 0)
(0.999812 -0.000690258 0)
(0.999395 -0.00177925 0)
(0.997773 -0.00159297 0)
(0.996223 -0.00045898 0)
(0.99738 0.00173722 0)
(0.999212 0.00208285 0)
(0.999987 0.00225379 0)
(1.00018 0.000183882 0)
(1.00039 -0.000391721 0)
(1.00029 -0.00244678 0)
(0.99881 -0.00265062 0)
(0.996977 -0.00316701 0)
(0.996593 -0.00151472 0)
(0.995837 -0.00299562 0)
(0.995548 -0.000115343 0)
(0.996161 -0.00161138 0)
(0.995976 0.000659187 0)
(0.995268 -0.000862054 0)
(0.995852 0.00123598 0)
(0.995818 -0.00117247 0)
(0.995533 0.0019395 0)
(0.996552 -0.000204411 0)
(0.997791 0.00242252 0)
(0.998315 0.000269004 0)
(0.999069 0.00208539 0)
(0.998551 -0.00133719 0)
(1.00012 -0.00127702 0)
(0.998424 -0.000281306 0)
(0.998875 0.000967765 0)
(0.999789 0.000255363 0)
(0.99975 -0.000723648 0)
(0.999424 -0.00151591 0)
(0.997866 -0.00168027 0)
(0.996447 -0.000202243 0)
(0.997542 0.00129233 0)
(0.999294 0.00230401 0)
(0.999904 0.00171568 0)
(1.00007 0.00057423 0)
(1.00026 -0.000871754 0)
(1.0002 -0.00177369 0)
(0.998795 -0.00304213 0)
(0.997146 -0.00240839 0)
(0.996626 -0.0019994 0)
(0.996067 -0.00232537 0)
(0.995692 -0.000533273 0)
(0.996346 -0.0012093 0)
(0.996101 0.000277738 0)
(0.995458 -0.000493816 0)
(0.995864 0.000917927 0)
(0.996001 -0.000741847 0)
(0.995736 0.00153651 0)
(0.996705 0.000355727 0)
(0.997709 0.00160156 0)
(0.997861 6.21378e-05 0)
(0.998148 0.000688559 0)
(1.00042 -0.000634811 0)
(1.0001 -0.00121901 0)
(0.998549 -0.000337737 0)
(0.998956 0.000928123 0)
(0.999743 0.000292136 0)
(0.999735 -0.00064399 0)
(0.999415 -0.00143161 0)
(0.997998 -0.00149961 0)
(0.996624 -0.000270507 0)
(0.997737 0.00143724 0)
(0.999344 0.00180533 0)
(0.999868 0.00204354 0)
(0.999934 0.000157884 0)
(1.00018 -0.000379389 0)
(1.00008 -0.00201161 0)
(0.998833 -0.00258358 0)
(0.997257 -0.00237719 0)
(0.996743 -0.00194797 0)
(0.996238 -0.00203 0)
(0.995905 -0.00081978 0)
(0.996493 -0.000737813 0)
(0.996281 -0.000171976 0)
(0.995595 6.52711e-05 0)
(0.995958 0.00032737 0)
(0.996166 -7.67998e-05 0)
(0.995971 0.000802761 0)
(0.996751 0.00104407 0)
(0.997861 0.00160414 0)
(0.998233 0.00266148 0)
(0.999063 0.00393771 0)
(1.0027 0.00502111 0)
(1.00008 -0.000954133 0)
(0.998681 -0.000598968 0)
(0.99903 0.00102205 0)
(0.999724 0.000100074 0)
(0.999696 -0.000466489 0)
(0.999436 -0.00142765 0)
(0.998108 -0.00131734 0)
(0.996849 -0.000333327 0)
(0.997883 0.00129827 0)
(0.999446 0.00176375 0)
(0.999805 0.00173651 0)
(0.999835 0.000359268 0)
(1.00008 -0.000789093 0)
(0.999972 -0.00131999 0)
(0.998876 -0.003073 0)
(0.997361 -0.00143141 0)
(0.996851 -0.00279733 0)
(0.996413 -0.000855549 0)
(0.996118 -0.00195063 0)
(0.99664 0.000508512 0)
(0.996464 -0.00138774 0)
(0.995747 0.00124814 0)
(0.99602 -0.000714846 0)
(0.996307 0.000997588 0)
(0.996226 -0.000355422 0)
(0.997119 0.00216821 0)
(0.998391 0.00107027 0)
(0.998776 0.00540229 0)
(0.999082 0.006562 0)
(1.00174 0.0113826 0)
(1.00006 -0.00105756 0)
(0.998816 -0.000423943 0)
(0.999097 0.000694223 0)
(0.999707 0.000413354 0)
(0.999685 -0.000737532 0)
(0.999446 -0.000943074 0)
(0.998222 -0.00154062 0)
(0.997038 3.22739e-05 0)
(0.998081 0.000911574 0)
(0.999514 0.00187606 0)
(0.999778 0.00140243 0)
(0.9997 0.000547121 0)
(1.00004 -0.000812131 0)
(0.999842 -0.00139068 0)
(0.99895 -0.00250929 0)
(0.99744 -0.0018479 0)
(0.997013 -0.00199946 0)
(0.99655 -0.00149761 0)
(0.996377 -0.0012038 0)
(0.996769 -0.000195573 0)
(0.996665 -0.000677928 0)
(0.995929 0.000522115 0)
(0.996105 7.42906e-05 0)
(0.99645 0.000377962 0)
(0.99651 0.000639936 0)
(0.997348 0.0016092 0)
(0.999109 0.00153768 0)
(1.00023 0.00224973 0)
(1.00135 0.00269252 0)
(1.00174 0.00405417 0)
(1.00002 -0.000663021 0)
(0.998978 -0.000837516 0)
(0.999148 0.000986496 0)
(0.999731 2.79232e-06 0)
(0.999626 -0.000207818 0)
(0.999511 -0.00138266 0)
(0.998292 -0.000872841 0)
(0.9973 -0.000556519 0)
(0.998186 0.0014406 0)
(0.999668 0.00110132 0)
(0.999692 0.00194638 0)
(0.999673 -8.34317e-05 0)
(0.999859 4.23492e-05 0)
(0.99987 -0.0022404 0)
(0.998901 -0.00111492 0)
(0.997642 -0.00308167 0)
(0.99704 -0.000383528 0)
(0.996783 -0.00298419 0)
(0.996552 0.000443948 0)
(0.996969 -0.00166192 0)
(0.996817 0.000848966 0)
(0.996152 -0.00087872 0)
(0.996166 0.00156227 0)
(0.996696 -0.000792987 0)
(0.996775 0.00191931 0)
(0.997608 0.000510009 0)
(0.998762 0.00245872 0)
(0.999315 -0.000282612 0)
(0.999845 0.000889856 0)
(1.0031 -0.00164645 0)
(1.00003 -0.000908176 0)
(0.99907 -0.000417243 0)
(0.999264 0.000390861 0)
(0.999693 0.000555612 0)
(0.999641 -0.000840357 0)
(0.999495 -0.000480809 0)
(0.998436 -0.00157524 0)
(0.997444 0.00032872 0)
(0.998417 0.000302432 0)
(0.999705 0.00211216 0)
(0.99972 0.000593909 0)
(0.999542 0.0011929 0)
(0.999817 -0.0014617 0)
(0.999801 -0.000505317 0)
(0.998935 -0.00265742 0)
(0.997756 -0.00116603 0)
(0.997181 -0.00205988 0)
(0.996943 -0.00099621 0)
(0.996829 -0.00127507 0)
(0.997104 0.000159452 0)
(0.997036 -0.000807807 0)
(0.996357 0.000782365 0)
(0.996315 -1.05863e-05 0)
(0.996794 0.000885712 0)
(0.9971 0.000418152 0)
(0.997748 0.00223747 0)
(0.999008 0.00148039 0)
(0.999931 0.0033625 0)
(1.0011 0.00388547 0)
(1.00515 0.00715135 0)
(1.00003 -0.000484234 0)
(0.999164 -0.000849198 0)
(0.999366 0.000724793 0)
(0.999681 1.04555e-05 0)
(0.999643 -7.37825e-05 0)
(0.999508 -0.00123064 0)
(0.998547 -0.000523984 0)
(0.997632 -0.000652029 0)
(0.998583 0.00142513 0)
(0.999791 0.00069087 0)
(0.999714 0.00177547 0)
(0.99944 -0.000119995 0)
(0.999754 -5.67819e-05 0)
(0.999767 -0.00167237 0)
(0.998977 -0.00126657 0)
(0.997888 -0.0021454 0)
(0.99729 -0.000921981 0)
(0.997121 -0.00188004 0)
(0.997049 -0.000256297 0)
(0.997262 -0.000893317 0)
(0.997227 0.000367418 0)
(0.996555 -0.000348861 0)
(0.996446 0.000963942 0)
(0.997022 -7.6691e-05 0)
(0.997468 0.00164852 0)
(0.998155 0.00179337 0)
(0.999419 0.0038748 0)
(1.00041 0.00394122 0)
(1.0016 0.00547483 0)
(1.00566 0.00382447 0)
(0.999996 -0.000700397 0)
(0.999312 -0.000448222 0)
(0.999431 0.000219647 0)
(0.999727 0.000466724 0)
(0.999599 -0.000625778 0)
(0.999552 -0.00038128 0)
(0.998635 -0.00126979 0)
(0.99783 0.000321635 0)
(0.99873 4.06128e-05 0)
(0.999877 0.00203027 0)
(0.999721 0.000208194 0)
(0.999376 0.00147466 0)
(0.999691 -0.00162736 0)
(0.999729 -1.15673e-05 0)
(0.999009 -0.00269859 0)
(0.998001 -0.000379816 0)
(0.997424 -0.00255482 0)
(0.997305 2.04178e-05 0)
(0.997269 -0.00206652 0)
(0.997489 0.000828281 0)
(0.997399 -0.00112276 0)
(0.996763 0.00111443 0)
(0.996617 -0.000415955 0)
(0.99726 0.00142247 0)
(0.997954 8.54161e-06 0)
(0.998788 0.00302879 0)
(1.00001 0.00288484 0)
(1.00078 0.00739492 0)
(1.00116 0.00910852 0)
(1.00416 0.0131797 0)
(0.999934 -0.000435244 0)
(0.999459 -0.000625157 0)
(0.999459 0.000286986 0)
(0.999779 0.000124606 0)
(0.999573 -0.000174589 0)
(0.999596 -0.000806515 0)
(0.998711 -0.000569402 0)
(0.997989 -0.000349399 0)
(0.998917 0.000861224 0)
(0.999981 0.000804355 0)
(0.999727 0.00131272 0)
(0.999284 0.000142521 0)
(0.999609 -6.86173e-05 0)
(0.99973 -0.00141113 0)
(0.999059 -0.000994549 0)
(0.998106 -0.00173049 0)
(0.997571 -0.000944548 0)
(0.997444 -0.00126963 0)
(0.997476 -0.000678602 0)
(0.997731 -0.000407691 0)
(0.997542 0.000101146 0)
(0.996995 1.60257e-05 0)
(0.996781 0.000656833 0)
(0.99739 0.00068085 0)
(0.998287 0.00140403 0)
(0.999458 0.00185529 0)
(1.00142 0.00247215 0)
(1.00323 0.00245341 0)
(1.00434 0.00281886 0)
(1.00345 0.00230594 0)
(0.999901 -0.000477704 0)
(0.999584 -0.000472586 0)
(0.999499 0.000146868 0)
(0.999894 0.000161237 0)
(0.999459 -0.000191922 0)
(0.999724 -0.000573019 0)
(0.998696 -0.000637922 0)
(0.998279 -8.67649e-05 0)
(0.998921 0.0004689 0)
(1.00019 0.00107134 0)
(0.999632 0.0008121 0)
(0.999366 0.00059455 0)
(0.999441 -0.000531529 0)
(0.999791 -0.000808408 0)
(0.999013 -0.00126346 0)
(0.998283 -0.00131653 0)
(0.997641 -0.00101035 0)
(0.997657 -0.00111532 0)
(0.997649 -0.000583429 0)
(0.998002 -0.000300315 0)
(0.997693 0.00016443 0)
(0.99724 0.000140249 0)
(0.997013 0.000543269 0)
(0.997827 0.000391359 0)
(0.998564 0.000852935 0)
(0.999465 0.00148011 0)
(1.00037 0.00269588 0)
(1.00105 0.00315096 0)
(1.00104 0.00423835 0)
(1.00391 0.00501463 0)
(0.999956 -0.000447953 0)
(0.999546 -0.000325633 0)
(0.999668 -9.38676e-05 0)
(0.999774 0.000213896 0)
(0.999593 -0.000365105 0)
(0.999603 -0.000229173 0)
(0.998895 -0.000853985 0)
(0.998263 0.000272614 0)
(0.999234 -2.73598e-05 0)
(1.00016 0.00137134 0)
(0.999777 0.000405427 0)
(0.999151 0.00100224 0)
(0.999479 -0.000931706 0)
(0.999719 -0.000198442 0)
(0.999113 -0.00169379 0)
(0.998346 -0.000556713 0)
(0.997819 -0.00153363 0)
(0.997767 -0.000445765 0)
(0.997929 -0.00099708 0)
(0.998182 0.000262754 0)
(0.997912 -0.000320741 0)
(0.997361 0.000697338 0)
(0.997098 6.00605e-05 0)
(0.997735 0.00070457 0)