/*--------------------------------*- C++ -*----------------------------------*\
| =========                 |                                                 |
| \\      /  F ield         | OpenFOAM: The Open Source CFD Toolbox           |
|  \\    /   O peration     | Version:  v2006                                 |
|   \\  /    A nd           | Website:  www.openfoam.com                      |
|    \\/     M anipulation  |                                                 |
\*---------------------------------------------------------------------------*/
FoamFile
{
    version     2.0;
    format      ascii;
    class       volScalarField;
    location    "1";
    object      p;
}
// * * * * * * * * * * * * * * * * * * * * * * * * * * * * * * * * * * * * * //

dimensions      [0 2 -2 0 0 0 0];


internalField   nonuniform List<scalar> 
26400
(
-1.28245e-08
0.00222218
0.002105
0.00235626
0.00177873
0.00207801
0.00173661
0.00204126
0.00174685
0.00207473
0.00181415
0.00208942
0.00186464
0.00215627
0.00195655
0.00224399
0.00208702
0.00241455
0.00232565
0.00270859
0.00272194
0.00319903
0.0033629
0.00399641
0.0043897
0.00530006
0.0061181
0.00768774
0.00944548
0.0120812
2.63227e-07
0.00222228
0.0021055
0.00235621
0.00177935
0.00207803
0.00173742
0.00204124
0.00174781
0.00207464
0.00181521
0.00208918
0.00186586
0.00215584
0.001958
0.00224329
0.00208884
0.00241337
0.00232802
0.00270648
0.00272516
0.00319488
0.00336768
0.00398672
0.00439855
0.00526997
0.00613824
0.00754553
0.00943396
0.0113936
1.18901e-06
0.00222267
0.00210643
0.00235615
0.00178057
0.00207803
0.00173894
0.00204111
0.00174962
0.00207432
0.00181726
0.00208855
0.00186824
0.00215489
0.00196082
0.00224189
0.00209223
0.0024112
0.00233211
0.00270309
0.00273
0.0031894
0.00337327
0.00397722
0.00440538
0.00525152
0.00613433
0.00746699
0.00931747
0.0107342
3.26366e-06
0.00222367
0.00210768
0.00235636
0.00178217
0.00207821
0.00174086
0.00204108
0.00175189
0.00207402
0.00181985
0.00208782
0.00187118
0.00215375
0.00196423
0.00224014
0.00209623
0.00240841
0.00233681
0.00269862
0.00273546
0.00318228
0.0033794
0.00396498
0.00441159
0.00522445
0.00613367
0.00734499
0.00909143
0.0101813
6.96813e-06
0.00222514
0.00210928
0.00235672
0.00178409
0.00207843
0.00174308
0.00204101
0.00175446
0.00207357
0.00182277
0.00208681
0.00187445
0.00215219
0.00196797
0.00223775
0.00210053
0.0024047
0.00234181
0.0026929
0.00274107
0.00317354
0.00338531
0.0039509
0.00441504
0.00519825
0.00610175
0.00725467
0.00874276
0.00973296
1.2473e-05
0.00222675
0.0021112
0.00235694
0.00178626
0.00207842
0.00174548
0.00204059
0.00175721
0.00207271
0.00182591
0.00208525
0.00187797
0.00214996
0.00197201
0.0022345
0.0021052
0.00239992
0.00234717
0.00268599
0.00274679
0.00316363
0.00339054
0.00393784
0.00441378
0.00518652
0.00603772
0.00717861
0.00836031
0.00918161
1.96203e-05
0.0022282
0.00211337
0.00235681
0.00178863
0.00207797
0.00174798
0.00203967
0.00176008
0.0020713
0.00182928
0.00208308
0.00188181
0.00214699
0.00197651
0.00223031
0.00211045
0.002394
0.00235319
0.00267771
0.0027531
0.00315199
0.00339577
0.00392234
0.00441323
0.00514508
0.00601106
0.00700865
0.00819981
0.00876953
2.80779e-05
0.00222936
0.00211578
0.00235626
0.00179121
0.00207702
0.00175062
0.00203821
0.00176316
0.00206934
0.00183298
0.0020803
0.00188611
0.00214333
0.0019816
0.00222526
0.00211639
0.00238701
0.00235992
0.00266813
0.00275995
0.00313836
0.00340026
0.00390468
0.00441251
0.00511096
0.0059566
0.00684558
0.00787727
0.00832548
3.75092e-05
0.00223026
0.00211842
0.00235532
0.00179406
0.00207561
0.00175349
0.00203624
0.00176658
0.00206686
0.00183714
0.00207694
0.00189099
0.00213898
0.00198737
0.00221935
0.00212302
0.00237909
0.00236714
0.00265776
0.00276682
0.00312604
0.0034021
0.00389148
0.0043906
0.00510788
0.0058378
0.00674634
0.00723632
0.00783477
4.76714e-05
0.00223095
0.00212134
0.00235406
0.00179729
0.00207378
0.0017567
0.00203377
0.00177045
0.00206384
0.00184191
0.00207291
0.0018966
0.00213383
0.00199395
0.00221243
0.00213045
0.00236999
0.00237497
0.00264584
0.00277388
0.00311048
0.00340489
0.00387017
0.00438172
0.00506785
0.0057664
0.00661657
0.00691752
0.00728895
5.84358e-05
0.00223148
0.00212457
0.00235254
0.00180097
0.00207155
0.00176033
0.00203078
0.00177486
0.00206023
0.00184734
0.00206818
0.00190296
0.00212786
0.00200133
0.00220455
0.00213853
0.00235994
0.00238309
0.00263326
0.00278018
0.00309498
0.00340632
0.00384634
0.00437256
0.00499904
0.00573419
0.00645146
0.00700007
0.00666825
6.97678e-05
0.00223185
0.00212816
0.0023508
0.00180521
0.00206888
0.00176446
0.00202721
0.00177991
0.00205595
0.00185354
0.00206265
0.00191013
0.00212096
0.0020095
0.00219571
0.0021471
0.00234899
0.00239128
0.00262025
0.00278536
0.00307976
0.00340412
0.00382312
0.00435292
0.00494432
0.00566728
0.00627872
0.00684137
0.00592969
8.16951e-05
0.00223201
0.00213215
0.00234882
0.00181008
0.00206574
0.00176915
0.00202299
0.00178565
0.00205094
0.00186053
0.00205628
0.00191813
0.00211318
0.0020183
0.00218611
0.00215589
0.0023373
0.00239905
0.00260723
0.00278868
0.00306504
0.00339814
0.00380156
0.00432013
0.00490189
0.0055591
0.00609761
0.00638094
0.00551176
9.42891e-05
0.00223187
0.00213656
0.00234659
0.00181567
0.00206208
0.00177447
0.00201803
0.00179216
0.00204514
0.00186833
0.00204908
0.00192687
0.00210468
0.00202754
0.00217596
0.00216466
0.00232608
0.00240552
0.00259511
0.00278866
0.00305163
0.00338527
0.00378862
0.00427579
0.00485284
0.00543843
0.00590927
0.00569654
0.00492452
0.000107655
0.00223129
0.00214143
0.00234407
0.00182208
0.00205782
0.00178049
0.00201227
0.00179947
0.0020385
0.00187699
0.00204099
0.00193631
0.00209543
0.00203716
0.00216523
0.00217323
0.00231494
0.00241051
0.00258347
0.00278691
0.00303668
0.00337338
0.00375017
0.00424009
0.00476801
0.00532445
0.00573955
0.00577255
0.00452171
0.000121926
0.00223008
0.0021468
0.0023412
0.00182942
0.0020529
0.00178727
0.00200562
0.00180762
0.00203097
0.00188647
0.00203208
0.00194629
0.00208561
0.00204674
0.00215451
0.0021808
0.00230453
0.00241341
0.00257283
0.00278261
0.00302083
0.00336087
0.00371307
0.00419876
0.00467084
0.00519558
0.00552716
0.00560282
0.00378921
0.00013726
0.00222805
0.0021527
0.00233794
0.00183778
0.00204728
0.00179481
0.00199806
0.00181656
0.00202261
0.0018966
0.00202264
0.00195641
0.00207602
0.00205554
0.00214524
0.0021862
0.00229624
0.0024126
0.00256497
0.00277217
0.00300929
0.00332719
0.00369004
0.00412835
0.00459037
0.00502053
0.00526175
0.00508252
0.00353983
0.000153859
0.00222494
0.00215915
0.00233424
0.00184727
0.00204089
0.00180316
0.00198956
0.00182624
0.00201351
0.00190722
0.00201281
0.00196642
0.00206693
0.00206326
0.00213743
0.00218926
0.00228995
0.00240893
0.00255819
0.00275918
0.00300252
0.00328938
0.00365843
0.00404924
0.00449981
0.00483956
0.00495496
0.00422248
0.00303386
0.000171944
0.00222045
0.00216619
0.00233004
0.00185799
0.00203372
0.00181228
0.00198009
0.00183657
0.0020037
0.00191827
0.00200231
0.00197585
0.00205792
0.0020696
0.00213053
0.00219046
0.00228345
0.0024053
0.0025476
0.00274878
0.00297323
0.00326915
0.00360016
0.00397779
0.00435946
0.00467641
0.00479723
0.00446565
0.00268891
0.000191704
0.00221432
0.00217377
0.00232537
0.00186992
0.00202586
0.00182205
0.00196992
0.00184717
0.00199382
0.00192926
0.00199544
0.00198409
0.00205132
0.00207385
0.00212558
0.00218946
0.00227775
0.00239963
0.00253688
0.00273875
0.00294795
0.00324426
0.00353222
0.00389465
0.00420329
0.00449006
0.00455923
0.00433376
0.00186136
0.000213607
0.00220608
0.00218198
0.00232008
0.0018833
0.0020171
0.00183257
0.00195882
0.00185819
0.00198283
0.00193988
0.00198413
0.0019918
0.00204497
0.00207648
0.00212157
0.00218609
0.00227333
0.00238932
0.00252668
0.00271717
0.00293075
0.00319532
0.00348022
0.00378745
0.00406191
0.00423477
0.00419631
0.0037632
0.00194414
0.000237638
0.00219548
0.00219062
0.00231438
0.0018979
0.00200801
0.00184313
0.00194791
0.00186862
0.00197495
0.00194822
0.00197969
0.00199509
0.00204468
0.00207326
0.00212456
0.00217641
0.002278
0.00237099
0.00253137
0.00267666
0.0029194
0.00311853
0.00342626
0.00366264
0.00392502
0.00396535
0.00374376
0.00269265
0.00158906
0.000264499
0.00218195
0.00219979
0.00230811
0.00191389
0.00199845
0.00185399
0.00193624
0.00187881
0.00196559
0.00195696
0.00197339
0.00199963
0.00203977
0.00207617
0.0021163
0.00217966
0.00226172
0.00237633
0.00249771
0.00267716
0.00285697
0.00309702
0.00332036
0.00355235
0.00369528
0.00375684
0.00363361
0.00329036
0.00132475
0.000294422
0.00216513
0.00220929
0.00230134
0.00193124
0.00198854
0.00186484
0.00192416
0.00188751
0.00195696
0.00196383
0.00196843
0.00200243
0.00203578
0.0020768
0.00210984
0.00217707
0.00224907
0.00236769
0.00248165
0.00265708
0.00282099
0.00304331
0.00323165
0.0034215
0.00350427
0.00349016
0.00329247
0.00292957
0.00105779
0.000327473
0.0021448
0.00221878
0.00229453
0.00194935
0.00197976
0.00187467
0.00191646
0.00189207
0.00195654
0.00196335
0.00197343
0.00199604
0.00204518
0.00206494
0.00212139
0.00215709
0.00226293
0.00232388
0.00248768
0.00258982
0.00281074
0.00292804
0.00316442
0.00326203
0.00336893
0.00316735
0.00269288
0.00146664
0.000769808
0.000364343
0.0021204
0.0022282
0.00228749
0.00196835
0.00197102
0.00188447
0.00190641
0.00189724
0.00195184
0.00196709
0.00196867
0.00200105
0.00203545
0.00207617
0.0021028
0.00217435
0.00223091
0.00234571
0.00243121
0.00258785
0.00272503
0.00289905
0.00302465
0.00311922
0.00310406
0.0029925
0.00275816
0.00237212
0.000513776
0.000405742
0.00209147
0.00223732
0.00228013
0.0019882
0.00196148
0.00189299
0.00189834
0.00190029
0.00195061
0.00196795
0.00196812
0.00199967
0.0020303
0.00207352
0.00209092
0.00216996
0.00220832
0.00233872
0.00239664
0.00257907
0.00265612
0.00284745
0.00289243
0.00296704
0.00284192
0.00267188
0.00238615
0.00212079
0.000332017
0.00045056
0.00205925
0.0022451
0.00227465
0.0020074
0.0019595
0.00189583
0.00189775
0.00189377
0.00196065
0.00195645
0.00198585
0.00198087
0.00206056
0.00204127
0.00212911
0.00212098
0.0022461
0.00226919
0.00242018
0.0024763
0.00264095
0.00271539
0.00282468
0.00278827
0.00264316
0.00218567
0.001455
0.000466325
0.000838082
0.000500168
0.00202171
0.00225209
0.00226866
0.00202977
0.00195415
0.00190339
0.00189043
0.00189687
0.00195664
0.00196127
0.0019793
0.00198496
0.00204833
0.00204161
0.00211306
0.00211741
0.00222476
0.0022542
0.00238677
0.00244361
0.00258529
0.00263315
0.00271527
0.00265174
0.00247975
0.00195379
0.00112098
4.58656e-05
0.000488584
0.000555942
0.00197721
0.00225696
0.0022574
0.0020485
0.00195303
0.00190881
0.00188429
0.00190089
0.00195032
0.00197077
0.00196835
0.00199913
0.00203194
0.00206416
0.00208405
0.00213509
0.00218349
0.00225887
0.0023288
0.00241634
0.00249233
0.00255435
0.0025602
0.00252363
0.00235704
0.00208961
0.00165803
0.00106631
-0.00106738
0.000614446
0.00194103
0.00225441
0.00226656
0.00206167
0.00195639
0.00191034
0.00188066
0.00190132
0.0019472
0.00197419
0.00196308
0.00200358
0.0020233
0.00206842
0.00206779
0.002133
0.00215535
0.00224167
0.00228076
0.00236573
0.00240687
0.00245194
0.00243781
0.00238602
0.00226243
0.00206235
0.00156983
0.000476862
-0.00327164
0.000680903
0.00188529
0.00225311
0.0022427
0.00209377
0.00196161
0.00191738
0.0018785
0.001901
0.00194733
0.00197086
0.00196588
0.00199519
0.00202879
0.00205465
0.00207532
0.00211131
0.00215465
0.00220359
0.00225291
0.0022994
0.00233109
0.0023551
0.00232583
0.00223469
0.00201996
0.00164279
0.00109139
0.000292609
-0.00231139
0.000745569
0.00185434
0.00223477
0.00226134
0.00208537
0.00198243
0.00190598
0.00189547
0.00188128
0.00196673
0.00194763
0.00198951
0.00196803
0.00205446
0.00202169
0.0020899
0.00206866
0.00214424
0.00214517
0.00220614
0.00221351
0.00224875
0.0022482
0.00222582
0.00207562
0.00183653
0.00112524
-7.12666e-05
-0.00172182
-0.00246002
0.000823815
0.00180218
0.00221931
0.00222933
0.00213006
0.00198015
0.00192992
0.00188001
0.00190018
0.00194708
0.00196885
0.00196739
0.00199156
0.00202868
0.00204718
0.00206155
0.00208034
0.00210197
0.00212247
0.00213516
0.00214714
0.00214098
0.00212002
0.0020526
0.00192365
0.00169551
0.00135236
0.000867715
-7.04884e-05
-0.00330908
0.00089355
0.00177544
0.00218751
0.00223857
0.00212602
0.00200036
0.00193185
0.00188412
0.00189566
0.00194366
0.00196582
0.00196167
0.00198671
0.00202112
0.0020384
0.0020454
0.00205627
0.00207327
0.00208298
0.00208442
0.0020685
0.00202413
0.00197272
0.00188085
0.00177572
0.00160518
0.00133424
0.000621438
-0.00106637
-0.00544497
0.000971759
0.00174172
0.00214996
0.00222493
0.0021454
0.00201518
0.00194632
0.00188932
0.00190031
0.00194122
0.00196615
0.00195788
0.0019832
0.00201894
0.00203301
0.00203933
0.00204307
0.00204171
0.00203699
0.00201152
0.00197585
0.00190831
0.00182561
0.00170174
0.00155737
0.001352
0.00104565
0.000310099
-0.00141886
-0.00584881
0.00105961
0.00171915
0.00210729
0.00219704
0.00215613
0.00202411
0.00196099
0.00189595
0.00190014
0.00193684
0.00196112
0.00195192
0.00197658
0.00201212
0.00202246
0.00202049
0.00201513
0.00200753
0.00198863
0.00194123
0.00188479
0.00179261
0.00168575
0.00151474
0.00126858
0.000899669
0.000445832
-0.000117298
-0.00102654
-0.00427402
0.00109946
0.00173692
0.00206007
0.00221213
0.00212044
0.00207848
0.00195618
0.00193592
0.00188195
0.00195334
0.0019406
0.00195758
0.00195853
0.00200812
0.00200399
0.00199662
0.00198134
0.00196282
0.00193472
0.00187519
0.00178436
0.00167367
0.00151811
0.00135471
0.00104727
0.000515267
-0.000563611
-0.00205575
-0.0039408
-0.00366591
0.0012238
0.00168598
0.00202608
0.00215571
0.00215883
0.00206391
0.00199752
0.00192836
0.00190199
0.00193394
0.00194888
0.00194161
0.00195916
0.00199571
0.00199502
0.00197324
0.00195297
0.00191615
0.00187242
0.00179225
0.00168874
0.00152684
0.0013193
0.00108103
0.00084514
0.000567199
0.000233995
-0.000155637
-0.000666452
-0.00355793
0.00124059
0.00173156
0.00198433
0.00216799
0.00211754
0.00210954
0.00198925
0.00196064
0.00189027
0.00194181
0.00193744
0.00193671
0.00194722
0.00197951
0.0019735
0.00193779
0.00191428
0.0018728
0.00180428
0.0017242
0.00160041
0.00146334
0.00127742
0.00106787
0.000669687
-6.59635e-05
-0.00132122
-0.00295218
-0.00486867
-0.00426136
0.00136119
0.00168242
0.00196205
0.00210661
0.0021404
0.00210057
0.00204276
0.00196376
0.00191408
0.00192738
0.00193706
0.00192074
0.001934
0.00196286
0.00195034
0.00190508
0.00186222
0.00180868
0.00174043
0.0016468
0.00152785
0.00137191
0.00117108
0.000907541
0.000591983
0.000254283
-7.69948e-05
-0.000520061
-0.00174765
-0.00578859
0.00142596
0.00168226
0.00194281
0.0020812
0.00213888
0.00210284
0.00206061
0.00196728
0.00192165
0.0019247
0.00193455
0.00191137
0.00191344
0.00193838
0.00191917
0.00187584
0.00182103
0.00175431
0.00168389
0.00157383
0.00145021
0.00127426
0.00107629
0.00083696
0.000573398
0.000199928
-0.00039592
-0.00153861
-0.00377669
-0.00880295
0.00144899
0.00172267
0.00192575
0.0020564
0.00211616
0.00211531
0.00207517
0.00199791
0.00193364
0.00193544
0.00193093
0.00190011
0.00189103
0.00190442
0.00188504
0.00182299
0.00176411
0.0017012
0.00162179
0.00150689
0.00136725
0.00118093
0.000959884
0.000695543
0.000385416
-4.57099e-05
-0.000732815
-0.00195858
-0.00429666
-0.00932185
0.0015852
0.00167416
0.00190809
0.00202455
0.00210557
0.00210125
0.00207993
0.00200456
0.00194917
0.00194268
0.00192746
0.00188657
0.00186163
0.00187576
0.00184883
0.00178274
0.00172436
0.00165167
0.00156929
0.00144039
0.00129434
0.00108979
0.000828311
0.000462967
1.5691e-05
-0.000510096
-0.00108134
-0.00186198
-0.00340577
-0.00803833
0.00151982
0.00181541
0.00188155
0.0020412
0.0020394
0.00213301
0.00205144
0.00204761
0.00194258
0.00196479
0.00191296
0.00186967
0.00182372
0.00182505
0.0018002
0.00173182
0.00167833
0.00160762
0.00151214
0.00139036
0.00121227
0.0010259
0.000729345
0.000338817
-0.000380817
-0.00148267
-0.00301487
-0.00487511
-0.00694967
-0.00602091
0.00168382
0.00174509
0.00188541
0.00198616
0.00205136
0.00209186
0.00208927
0.00204166
0.00198763
0.00196505
0.00192294
0.0018435
0.00178918
0.00177541
0.00174642
0.00167192
0.00160088
0.00152967
0.00144252
0.00131214
0.00114795
0.000936283
0.000657747
0.000298967
-0.000118608
-0.00058593
-0.00116379
-0.00211327
-0.00418526
-0.00942479
0.00168449
0.0017658
0.0019058
0.00198074
0.00204395
0.00207579
0.00208742
0.00204215
0.00199315
0.00196575
0.00191241
0.00182963
0.00175368
0.00173755
0.00169847
0.00161134
0.00153458
0.00145622
0.00137769
0.00124438
0.00109018
0.000884332
0.000645651
0.000324932
-8.7247e-05
-0.000750313
-0.0018087
-0.00361378
-0.00668617
-0.0125516
0.00170801
0.00184415
0.00191375
0.00197026
0.00201332
0.00205411
0.00207758
0.00204785
0.00201003
0.00197222
0.0019196
0.0018079
0.00171176
0.00167275
0.0016256
0.00154952
0.00146202
0.00139514
0.00130889
0.00118893
0.00102731
0.000836013
0.000590501
0.00026625
-0.00020195
-0.000890593
-0.00196331
-0.00371203
-0.00683042
-0.0128535
0.00178979
0.0018364
0.00190599
0.00195876
0.00199467
0.0020407
0.00206608
0.00205212
0.00201554
0.0019828
0.00190548
0.00177569
0.00166511
0.00161029
0.00156625
0.00148616
0.00139975
0.00132749
0.00124602
0.00112451
0.000962615
0.000764422
0.000513739
0.000172261
-0.000312958
-0.00102914
-0.00214898
-0.00402449
-0.00737894
-0.0137218
0.00179189
0.00187445
0.00193972
0.00196697
0.00198703
0.00202219
0.00205287
0.00204179
0.00200928
0.00197086
0.00189302
0.00175673
0.00162955
0.00156133
0.00150724
0.00142393
0.00133109
0.00125584
0.0011752
0.00105469
0.000887788
0.00068065
0.000418421
6.34125e-05
-0.000443973
-0.00120312
-0.00240795
-0.00441966
-0.00793851
-0.0144322
0.00184242
0.00190825
0.00195044
0.00196741
0.00197641
0.00200491
0.00203264
0.00202126
0.00198741
0.001951
0.00187583
0.00173624
0.00159616
0.0015123
0.00144878
0.00135952
0.00125958
0.00117884
0.00109789
0.000977934
0.00080501
0.000585974
0.000310001
-6.20757e-05
-0.000599933
-0.00141359
-0.0026967
-0.00480171
-0.00841362
-0.0149536
0.00187604
0.00192622
0.00196355
0.00197546
0.00197669
0.00199413
0.00201348
0.00199857
0.00196104
0.00192432
0.00185297
0.00171452
0.00156548
0.00146669
0.00139252
0.00129617
0.00118775
0.00109845
0.00101443
0.000894151
0.00071541
0.000482655
0.000189192
-0.000204729
-0.00077457
-0.00163518
-0.0029766
-0.00514306
-0.00879746
-0.0153531
0.00190985
0.00195096
0.0019803
0.00198731
0.00197955
0.00198437
0.00199368
0.00197242
0.00192773
0.00188644
0.00181877
0.00168564
0.00153278
0.00142238
0.00133788
0.00123405
0.00111579
0.00101511
0.000924874
0.000802719
0.000618021
0.000370477
5.63574e-05
-0.000361013
-0.000958672
-0.00185428
-0.00323634
-0.00543894
-0.00912085
-0.0156962
0.00194539
0.00197568
0.00199404
0.00199526
0.00198138
0.0019753
0.00197369
0.00194454
0.00189082
0.00184263
0.00177689
0.00165067
0.00149761
0.00137847
0.00128479
0.00117301
0.00104388
0.000929534
0.000829887
0.000703563
0.000512941
0.000250953
-8.39677e-05
-0.000523723
-0.00114386
-0.00206433
-0.00347168
-0.00569493
-0.00938892
-0.0159701
0.00197847
0.0019996
0.00200828
0.00200294
0.00198318
0.00196711
0.00195438
0.00191651
0.00185394
0.00179717
0.0017304
0.00160978
0.00145785
0.00133195
0.00123038
0.00111178
0.000972007
0.000842646
0.000730297
0.00059729
0.000400704
0.000126138
-0.000227898
-0.000687865
-0.00132602
-0.00226317
-0.0036858
-0.00592302
-0.00962858
-0.016221
0.00200982
0.00202337
0.00202336
0.00201057
0.00198418
0.00195837
0.00193408
0.00188747
0.00181643
0.00175003
0.00167925
0.00156247
0.0014126
0.00128126
0.00117267
0.00104866
0.000899978
0.000755299
0.000627575
0.000485169
0.000282506
-2.34903e-06
-0.000372803
-0.000850694
-0.00150375
-0.00245167
-0.00388428
-0.00613189
-0.00984635
-0.0164477
0.002039
0.00204686
0.00203935
0.00201846
0.00198442
0.0019484
0.00191236
0.00185714
0.00177834
0.00170216
0.00162552
0.00151041
0.00136244
0.00122645
0.00111104
0.000982528
0.000826916
0.000667959
0.000523468
0.000369374
0.000160216
-0.000132818
-0.00051682
-0.00101047
-0.00167553
-0.00263112
-0.00407045
-0.00632641
-0.0100488
-0.0166528
0.00206416
0.0020694
0.00205651
0.00202672
0.00198384
0.00193715
0.00188948
0.0018256
0.00173951
0.001654
0.00157028
0.00145499
0.00130797
0.00116761
0.0010452
0.000912544
0.000751619
0.000580371
0.000419063
0.000251934
3.55494e-05
-0.00026385
-0.000658554
-0.0011654
-0.00184099
-0.00280245
-0.00424585
-0.00650749
-0.0102394
-0.016856
0.00208876
0.00209081
0.00207205
0.00203385
0.00198228
0.001925
0.00186565
0.00179292
0.00169996
0.00160558
0.00151397
0.00139678
0.00124975
0.00110497
0.000975579
0.000838403
0.000673374
0.000492055
0.000315098
0.000134146
-9.00658e-05
-0.000394529
-0.000797029
-0.00131439
-0.00199956
-0.00296634
-0.0044116
-0.00667496
-0.0104119
-0.0170384
0.00211392
0.00211081
0.00208491
0.00203946
0.00197952
0.00191198
0.00184098
0.0017593
0.00165962
0.00155676
0.00145679
0.00133611
0.00118837
0.00103919
0.000902676
0.000760365
0.000591953
0.000402758
0.000211844
1.67362e-05
-0.00021593
-0.00052442
-0.000931446
-0.0014566
-0.00215026
-0.00312248
-0.00456857
-0.00682943
-0.0105603
-0.0171777
0.00213619
0.00212915
0.00209713
0.00204385
0.00197555
0.00189812
0.00181576
0.0017248
0.00161834
0.0015075
0.00139886
0.00127363
0.00112459
0.000971194
0.000826974
0.000678853
0.0005075
0.000312546
0.00010964
-9.93415e-05
-0.000341089
-0.000652778
-0.00106178
-0.00159182
-0.00229241
-0.00326983
-0.0047168
-0.00697524
-0.0107045
-0.0173269
0.00215575
0.00214609
0.00210843
0.00204705
0.00197037
0.0018833
0.00178981
0.00168934
0.00157595
0.00145767
0.00134046
0.00120977
0.0010588
0.000901426
0.000749276
0.000594544
0.000420173
0.000221284
8.95224e-06
-0.000212609
-0.00046377
-0.000778913
-0.0011886
-0.00172089
-0.0024263
-0.00340843
-0.00485747
-0.00711528
-0.0108436
-0.0174662
0.00217426
0.00216147
0.00211796
0.00204889
0.00196384
0.00186732
0.00176292
0.00165291
0.00153255
0.00140714
0.00128168
0.00114487
0.000991272
0.000830214
0.000670514
0.000508272
0.000330352
0.000129
-8.97159e-05
-0.00032171
-0.000582409
-0.000902203
-0.00131242
-0.00184499
-0.00255277
-0.00353857
-0.00499026
-0.00724864
-0.0109757
-0.017596
0.00219043
0.00217497
0.00212613
0.00204936
0.00195593
0.00185018
0.00173518
0.00161576
0.00148839
0.0013559
0.00122232
0.00107909
0.000922366
0.000758116
0.00059149
0.000421256
0.000238973
3.59921e-05
-0.000186502
-0.000426466
-0.00069615
-0.00102147
-0.00143271
-0.00196442
-0.00267245
-0.0036602
-0.00511409
-0.00737348
-0.0111004
-0.0177194
0.00220433
0.00218653
0.00213265
0.0020483
0.00194667
0.00183204
0.00170691
0.00157809
0.00144363
0.00130424
0.00116259
0.00101248
0.000852228
0.000685298
0.000512798
0.000334648
0.000147058
-5.76035e-05
-0.000282025
-0.000527273
-0.000804375
-0.00113536
-0.00154839
-0.00207909
-0.00278593
-0.00377367
-0.00522819
-0.00748771
-0.0112149
-0.0178378
0.00221692
0.00219629
0.00213705
0.00204543
0.00193591
0.001813
0.00167828
0.00154003
0.00139834
0.00125245
0.00110302
0.000945449
0.000780872
0.000611635
0.00043475
0.000249441
5.58284e-05
-0.000151211
-0.000376493
-0.000624613
-0.000907074
-0.00124331
-0.00165878
-0.00218885
-0.00289366
-0.00387967
-0.005333
-0.00759096
-0.0113154
-0.0179358
0.00222752
0.00220394
0.0021395
0.00204083
0.0019238
0.00179318
0.00164938
0.00150178
0.00135267
0.00120051
0.00104388
0.000878715
0.000708916
0.000537198
0.000357253
0.000166236
-3.3323e-05
-0.000243577
-0.000469693
-0.000719112
-0.00100488
-0.00134523
-0.00176321
-0.00229309
-0.00299573
-0.00397913
-0.00543016
-0.00768597
-0.0114085
-0.0180297
0.00223567
0.00220949
0.00214042
0.00203511
0.00191074
0.00177266
0.00162025
0.00146354
0.00130685
0.00114849
0.000985319
0.000813035
0.000637443
0.000462545
0.000280147
8.49833e-05
-0.000119616
-0.000333478
-0.000560963
-0.000810989
-0.00109836
-0.00144132
-0.00186142
-0.00239154
-0.00309254
-0.00407351
-0.00552242
-0.00777667
-0.0114976
-0.018118
0.00224107
0.00221287
0.0021399
0.00202844
0.00189683
0.00175147
0.00159098
0.00142559
0.00126126
0.00109675
0.000927527
0.000748774
0.000567369
0.000388694
0.000203869
5.64968e-06
-0.000202879
-0.000420089
-0.00064933
-0.00089989
-0.00118791
-0.00153224
-0.00195384
-0.00248441
-0.00318436
-0.00416336
-0.00561056
-0.00786438
-0.0115872
-0.018212
0.00224423
0.00221414
0.00213767
0.00202061
0.00188202
0.00172974
0.0015618
0.00138824
0.00121634
0.00104568
0.000870809
0.000686195
0.000499356
0.000316744
0.000129337
-7.14764e-05
-0.000283123
-0.00050314
-0.000734119
-0.000985298
-0.0012736
-0.00161853
-0.00204097
-0.00257191
-0.00327122
-0.00424884
-0.00569474
-0.0079481
-0.0116715
-0.0182971
0.00224588
0.00221358
0.00213341
0.00201117
0.00186625
0.00170759
0.0015328
0.00135169
0.00117263
0.00099589
0.000815677
0.000625744
0.000433844
0.000247302
5.72796e-05
-0.000145901
-0.000360176
-0.000582532
-0.000814981
-0.00106668
-0.00135506
-0.00170018
-0.00212303
-0.00265419
-0.00335306
-0.00432959
-0.00577422
-0.00802665
-0.0117494
-0.0183746
0.00224554
0.00221115
0.00212763
0.0020008
0.00184995
0.00168523
0.0015042
0.0013162
0.00113049
0.000947945
0.000762573
0.000567735
0.000371224
0.000180895
-1.17219e-05
-0.000217
-0.000433527
-0.000657908
-0.00089164
-0.00114373
-0.00143199
-0.00177705
-0.00220006
-0.00273133
-0.00342974
-0.00440509
-0.0058481
-0.00809896
-0.0118205
-0.0184457
0.00224359
0.00220732
0.00212069
0.0019897
0.00183342
0.00166299
0.00147627
0.00128198
0.00109009
0.000902183
0.000711984
0.000512519
0.000311798
0.00011802
-7.711e-05
-0.000284287
-0.000502695
-0.000728845
-0.000963793
-0.00121629
-0.00150428
-0.00184893
-0.00227177
-0.00280294
-0.00350082
-0.00447489
-0.00591612
-0.00816527
-0.0118858
-0.0185112
0.00224026
0.0022023
0.00211279
0.00197808
0.00181696
0.00164123
0.00144931
0.00124937
0.00105174
0.000858873
0.000664323
0.000460606
0.00025593
5.90275e-05
-0.000138371
-0.000347284
-0.000567262
-0.000794869
-0.00103091
-0.00128386
-0.00157157
-0.00191554
-0.00233778
-0.00286859
-0.00356596
-0.00453897
-0.00597861
-0.00822618
-0.0119459
-0.0185717
0.00223591
0.00219644
0.00210435
0.0019663
0.00180093
0.00162036
0.00142372
0.00121877
0.00101587
0.000818323
0.000619891
0.000412509
0.000204183
4.30682e-06
-0.000195062
-0.000405452
-0.000626766
-0.000855529
-0.00109245
-0.00134584
-0.00163338
-0.00197664
-0.00239803
-0.00292822
-0.00362511
-0.00459736
-0.00603577
-0.00828197
-0.0120008
-0.0186269
0.00223095
0.00219016
0.00209575
0.00195475
0.00178567
0.00160079
0.00139989
0.00119057
0.000982965
0.000781064
0.000579087
0.000368644
0.000157198
-4.55541e-05
-0.000246788
-0.000458312
-0.000680686
-0.000910387
-0.00114798
-0.00140172
-0.00168922
-0.00203195
-0.0024525
-0.00298192
-0.0036783
-0.00465005
-0.00608763
-0.00833267
-0.0120505
-0.0186767
0.00222581
0.00218389
0.00208748
0.00194391
0.00177166
0.001583
0.00137828
0.0011652
0.000953602
0.000747827
0.00054258
0.000329493
0.000115596
-8.96819e-05
-0.000292829
-0.000505298
-0.000728386
-0.000958836
-0.00119697
-0.00145101
-0.00173852
-0.00208096
-0.00250088
-0.00302957
-0.00372541
-0.00469684
-0.00613406
-0.00837849
-0.0120956
-0.0187216
0.00222089
0.0021781
0.00208003
0.00193427
0.00175937
0.00156746
0.00135941
0.0011432
0.000928379
0.00071935
0.000511282
0.000295963
8.02157e-05
-0.000126979
-0.000331926
-0.000545337
-0.000768826
-0.00099974
-0.00123832
-0.00149264
-0.00178019
-0.00212244
-0.00254192
-0.00307004
-0.00376543
-0.00473669
-0.00617395
-0.00841848
-0.0121358
-0.0187623
0.00221686
0.0021733
0.00207379
0.00192613
0.00174908
0.00155458
0.00134381
0.00112521
0.00090803
0.000696516
0.000486242
0.00026925
5.22255e-05
-0.000156196
-0.000362521
-0.000576834
-0.000800494
-0.00103151
-0.00127035
-0.00152489
-0.00181248
-0.00215455
-0.0025737
-0.00310135
-0.00379635
-0.00476746
-0.00620486
-0.00844968
-0.0121673
-0.0187941
0.00221437
0.00217024
0.00206934
0.00191966
0.0017403
0.00154316
0.00132956
0.00110838
0.000888896
0.000675073
0.000462641
0.000243921
2.55696e-05
-0.000183997
-0.000391554
-0.000607046
-0.000831367
-0.00106275
-0.00130204
-0.00155704
-0.00184493
-0.00218705
-0.00260599
-0.00313317
-0.00382747
-0.00479776
-0.00623437
-0.00847869
-0.0121968
-0.0188268
0.0141146
0.0138179
0.0123322
0.0101645
0.00737352
0.00408842
0.00047292
-0.00311293
-0.00595191
-0.00739831
-0.00746649
-0.00670848
-0.00569862
-0.00476429
-0.00403414
-0.00352758
-0.00321014
-0.00302978
-0.00293758
-0.00289556
-0.0028774
-0.00286662
-0.00285404
-0.00283566
-0.0028107
-0.00278026
-0.00274628
-0.0027108
-0.00267558
-0.0026419
-0.00261052
-0.00258178
-0.00255573
-0.00253228
-0.00251121
-0.00249231
-0.00247539
-0.00246033
-0.00244701
-0.00243531
-0.00242516
-0.00241645
-0.00240908
-0.00240295
-0.00239794
-0.00239395
-0.00239089
-0.0023887
-0.00238735
-0.0023868
-0.00238702
-0.00238798
-0.00238964
-0.00239195
-0.00239487
-0.00239838
-0.00240249
-0.00240718
-0.00241246
-0.00241833
-0.00242473
-0.00243168
-0.00243909
-0.00244697
-0.00245525
-0.00246394
-0.00247302
-0.0024825
-0.00249237
-0.00250262
-0.00251319
-0.00252408
-0.00253523
-0.0025467
-0.00255846
-0.00257058
-0.00258302
-0.00259578
-0.0026088
-0.00262207
-0.00263559
-0.00264936
-0.00266339
-0.00267767
-0.00269218
-0.00270689
-0.00272178
-0.00273684
-0.00275207
-0.0027675
-0.00278309
-0.00279887
-0.0028148
-0.0028309
-0.00284716
-0.00286361
-0.00288026
-0.00289711
-0.00291415
-0.00293139
-0.00294881
-0.00296643
-0.00298424
-0.00300224
-0.00302041
-0.00303874
-0.00305722
-0.00307586
-0.00309466
-0.0031136
-0.00313266
-0.00315186
-0.00317116
-0.00319058
-0.0032101
-0.00322974
-0.00324947
-0.00326931
-0.00328922
-0.00330922
-0.00332928
-0.00334944
-0.00336966
-0.00338996
-0.00341034
-0.00343082
-0.00345139
-0.00347208
-0.00349289
-0.00351383
-0.0035349
-0.0035561
-0.00357744
-0.00359891
-0.00362053
-0.00364228
-0.00366417
-0.00368618
-0.00370831
-0.00373055
-0.00375289
-0.00377531
-0.00379781
-0.00382036
-0.00384296
-0.0038656
-0.00388827
-0.00391098
-0.00393371
-0.00395649
-0.00397932
-0.00400221
-0.00402516
-0.00404822
-0.00407136
-0.00409464
-0.00411804
-0.00414159
-0.00416527
-0.00418915
-0.00421319
-0.00423745
-0.00426188
-0.00428648
-0.00431124
-0.00433611
-0.00436114
-0.00438629
-0.00441159
-0.00443698
-0.00446249
-0.00448801
-0.0045136
-0.00453918
-0.00456479
-0.0045904
-0.00461603
-0.00464168
-0.00466735
-0.00469304
-0.00471872
-0.00474441
-0.00477016
-0.00479601
-0.00482202
-0.00484819
-0.00487452
-0.00490096