/*--------------------------------*- C++ -*----------------------------------*\
| =========                 |                                                 |
| \\      /  F ield         | OpenFOAM: The Open Source CFD Toolbox           |
|  \\    /   O peration     | Version:  v2006                                 |
|   \\  /    A nd           | Website:  www.openfoam.com                      |
|    \\/     M anipulation  |                                                 |
\*---------------------------------------------------------------------------*/
FoamFile
{
    version     2.0;
    format      ascii;
    class       surfaceScalarField;
    location    "1";
    object      phi;
}
// * * * * * * * * * * * * * * * * * * * * * * * * * * * * * * * * * * * * * //

dimensions      [0 3 -1 0 0 0 0];
oriented        oriented;


internalField   nonuniform List<scalar> 
52390
(
1.16995e-06
-3.16298e-07
1.17021e-06
2.875e-07
1.1733e-06
-2.75404e-07
1.17305e-06
2.13334e-07
1.17652e-06
-1.98193e-07
1.17672e-06
1.75036e-07
1.1802e-06
-1.62904e-07
1.18018e-06
1.30879e-07
1.1835e-06
-1.37286e-07
1.18318e-06
9.32985e-08
1.18619e-06
-1.13138e-07
1.1856e-06
7.08137e-08
1.18838e-06
-9.03005e-08
1.18756e-06
5.4607e-08
1.1902e-06
-7.29688e-08
1.1892e-06
4.24927e-08
1.19178e-06
-5.99517e-08
1.19052e-06
3.25106e-08
1.19309e-06
-4.81728e-08
1.19143e-06
2.45125e-08
1.19407e-06
-3.76706e-08
1.19183e-06
1.81428e-08
1.19461e-06
-2.89039e-08
1.19159e-06
1.28759e-08
1.19455e-06
-2.10956e-08
1.19066e-06
8.21891e-09
1.19322e-06
-1.10111e-08
1.18703e-06
4.46029e-09
1.18255e-06
1.87014e-08
2.36368e-08
1.15407e-06
1.22701e-06
-3.19048e-07
1.2278e-06
2.86707e-07
1.23172e-06
-2.79318e-07
1.23201e-06
2.13038e-07
1.23583e-06
-2.02008e-07
1.23638e-06
1.74487e-07
1.23981e-06
-1.66334e-07
1.2402e-06
1.30484e-07
1.24318e-06
-1.4026e-07
1.24338e-06
9.30949e-08
1.24578e-06
-1.15534e-07
1.24596e-06
7.06318e-08
1.24775e-06
-9.20893e-08
1.24805e-06
5.43051e-08
1.24924e-06
-7.41627e-08
1.24987e-06
4.18696e-08
1.25038e-06
-6.04619e-08
1.25143e-06
3.1452e-08
1.25108e-06
-4.78212e-08
1.25274e-06
2.28572e-08
1.25125e-06
-3.61865e-08
1.25371e-06
1.5684e-08
1.25074e-06
-2.5932e-08
1.2542e-06
9.41551e-09
1.24937e-06
-1.62672e-08
1.25382e-06
3.76994e-09
1.24679e-06
-3.97754e-09
1.25009e-06
1.15378e-09
1.23822e-06
3.05721e-08
3.89531e-08
1.22291e-06
1.28542e-06
-3.21686e-07
1.28913e-06
2.82995e-07
1.29191e-06
-2.82099e-07
1.29485e-06
2.10106e-07
1.297e-06
-2.0416e-07
1.29993e-06
1.71555e-07
1.3012e-06
-1.67607e-07
1.30395e-06
1.27741e-07
1.3044e-06
-1.40714e-07
1.30705e-06
9.04469e-08
1.30667e-06
-1.15154e-07
1.30945e-06
6.78482e-08
1.3082e-06
-9.08379e-08
1.31124e-06
5.12689e-08
1.30917e-06
-7.20955e-08
1.31261e-06
3.84305e-08
1.30973e-06
-5.7585e-08
1.31358e-06
2.7603e-08
1.30992e-06
-4.41586e-08
1.31409e-06
1.86854e-08
1.30971e-06
-3.18042e-08
1.31399e-06
1.14033e-08
1.30905e-06
-2.09976e-08
1.31303e-06
5.43764e-09
1.30795e-06
-1.1182e-08
1.31077e-06
9.4351e-10
1.30641e-06
3.8972e-10
1.30396e-06
3.59793e-09
1.30105e-06
3.3485e-08
6.14869e-08
1.27851e-06
1.34584e-06
-3.23422e-07
1.35203e-06
2.76809e-07
1.35315e-06
-2.8322e-07
1.35857e-06
2.04685e-07
1.35884e-06
-2.0443e-07
1.36386e-06
1.66531e-07
1.36294e-06
-1.6669e-07
1.36755e-06
1.23136e-07
1.36572e-06
-1.38889e-07
1.37007e-06
8.61061e-08
1.36756e-06
-1.12652e-07
1.37183e-06
6.35869e-08
1.3687e-06
-8.77159e-08
1.37286e-06
4.71076e-08
1.3693e-06
-6.85351e-08
1.3734e-06
3.433e-08
1.36955e-06
-5.37296e-08
1.37352e-06
2.3634e-08
1.36954e-06
-4.0184e-08
1.37321e-06
1.50144e-08
1.36927e-06
-2.78597e-08
1.3724e-06
8.27417e-09
1.36864e-06
-1.72361e-08
1.37087e-06
3.20641e-09
1.36763e-06
-7.94792e-09
1.36807e-06
5.12224e-10
1.36628e-06
2.17156e-09
1.36101e-06
8.86839e-09
1.36047e-06
3.40278e-08
8.4755e-08
1.3372e-06
1.40866e-06
-3.23727e-07
1.41612e-06
2.69349e-07
1.41549e-06
-2.8259e-07
1.42232e-06
1.97849e-07
1.42111e-06
-2.03213e-07
1.42713e-06
1.60506e-07
1.42477e-06
-1.64324e-07
1.43005e-06
1.17855e-07
1.427e-06
-1.35845e-07
1.43174e-06
8.13689e-08
1.42846e-06
-1.09371e-07
1.43282e-06
5.92216e-08
1.42937e-06
-8.42576e-08
1.43329e-06
4.31799e-08
1.42981e-06
-6.50525e-08
1.43338e-06
3.07641e-08
1.42995e-06
-5.02997e-08
1.43318e-06
2.03974e-08
1.4299e-06
-3.69023e-08
1.43275e-06
1.21694e-08
1.42963e-06
-2.47436e-08
1.43193e-06
5.9741e-09
1.429e-06
-1.43096e-08
1.43045e-06
1.75882e-09
1.42798e-06
-5.47434e-09
1.42772e-06
7.73371e-10
1.4261e-06
3.78745e-09
1.42159e-06
1.33811e-08
1.41862e-06
3.69959e-08
1.10778e-07
1.3926e-06
1.47445e-06
-3.22504e-07
1.48191e-06
2.61896e-07
1.47984e-06
-2.80526e-07
1.48683e-06
1.90866e-07
1.48477e-06
-2.01156e-07
1.49071e-06
1.54568e-07
1.48776e-06
-1.61377e-07
1.49277e-06
1.1285e-07
1.48944e-06
-1.32522e-07
1.49378e-06
7.70268e-08
1.49058e-06
-1.06162e-07
1.49448e-06
5.53146e-08
1.49134e-06
-8.11186e-08
1.49478e-06
3.97423e-08
1.49174e-06
-6.20095e-08
1.49485e-06
2.76573e-08
1.49187e-06
-4.73217e-08
1.49474e-06
1.75251e-08
1.49186e-06
-3.4024e-08
1.49446e-06
9.57422e-09
1.49166e-06
-2.19478e-08
1.49379e-06
3.84191e-09
1.4911e-06
-1.16171e-08
1.49244e-06
4.15246e-10
1.48993e-06
-2.96562e-09
1.4901e-06
6.12899e-10
1.48712e-06
6.76656e-09
1.48482e-06
1.56766e-08
1.48362e-06
3.81978e-08
6.44741e-08
1.52992e-06
1.5437e-06
-3.19987e-07
1.55035e-06
2.55242e-07
1.5473e-06
-2.77475e-07
1.55361e-06
1.84558e-07
1.55119e-06
-1.98733e-07
1.55651e-06
1.49245e-07
1.55345e-06
-1.58321e-07
1.55788e-06
1.08423e-07
1.55463e-06
-1.29269e-07
1.55848e-06
7.31726e-08
1.55546e-06
-1.03141e-07
1.55901e-06
5.17622e-08
1.5561e-06
-7.82053e-08
1.55932e-06
3.65177e-08
1.55647e-06
-5.91522e-08
1.55949e-06
2.46372e-08
1.55662e-06
-4.44599e-08
1.5595e-06
1.46506e-08
1.55669e-06
-3.12116e-08
1.55932e-06
6.94543e-09
1.55658e-06
-1.92146e-08
1.5587e-06
1.72469e-09
1.55613e-06
-9.04284e-09
1.5573e-06
-7.5723e-10
1.55517e-06
-8.41026e-10
1.55444e-06
1.34738e-09
1.55322e-06
7.98991e-09
1.5482e-06
2.06945e-08
1.54383e-06
4.25665e-08
9.5495e-08
1.51281e-06
1.61666e-06
-3.16519e-07
1.62237e-06
2.49534e-07
1.61866e-06
-2.73761e-07
1.62409e-06
1.7912e-07
1.62144e-06
-1.96077e-07
1.62618e-06
1.44505e-07
1.62306e-06
-1.55204e-07
1.62708e-06
1.04408e-07
1.62381e-06
-1.26004e-07
1.62741e-06
6.95717e-08
1.62436e-06
-1.00087e-07
1.62781e-06
4.83089e-08
1.62485e-06
-7.52393e-08
1.6281e-06
3.32607e-08
1.62516e-06
-5.62138e-08
1.62829e-06
2.15146e-08
1.62533e-06
-4.15071e-08
1.62831e-06
1.16774e-08
1.62543e-06
-2.83371e-08
1.62809e-06
4.28513e-09
1.62539e-06
-1.65074e-08
1.62741e-06
-2.96361e-10
1.62499e-06
-6.62226e-09
1.62587e-06
-1.6392e-09
1.62408e-06
9.42708e-10
1.62269e-06
2.74078e-09
1.62218e-06
8.50534e-09
1.61696e-06
2.59132e-08
1.61209e-06
4.74303e-08
1.32186e-07
1.5754e-06
1.69342e-06
-3.12369e-07
1.6985e-06
2.44461e-07
1.69426e-06
-2.69524e-07
1.69905e-06
1.74324e-07
1.69609e-06
-1.93108e-07
1.70054e-06
1.40049e-07
1.69723e-06
-1.51891e-07
1.70112e-06
1.00512e-07
1.69766e-06
-1.22543e-07
1.70126e-06
6.5979e-08
1.69795e-06
-9.67852e-08
1.70148e-06
4.47814e-08
1.69827e-06
-7.20308e-08
1.70167e-06
2.98664e-08
1.69851e-06
-5.30592e-08
1.70178e-06
1.82513e-08
1.69866e-06
-3.83877e-08
1.7017e-06
8.62966e-09
1.69874e-06
-2.5373e-08
1.70137e-06
1.6557e-09
1.69867e-06
-1.38034e-08
1.70058e-06
-2.20872e-09
1.69816e-06
-4.20157e-09
1.69919e-06
-2.67047e-09
1.69637e-06
3.76172e-09
1.69706e-06
2.05383e-09
1.69183e-06
1.37371e-08
1.69624e-06
2.15027e-08
1.69722e-06
4.64435e-08
8.28191e-08
1.74659e-06
1.77404e-06
-3.07683e-07
1.77892e-06
2.39578e-07
1.77417e-06
-2.64777e-07
1.77869e-06
1.6981e-07
1.77528e-06
-1.89699e-07
1.77976e-06
1.3557e-07
1.77611e-06
-1.48244e-07
1.78013e-06
9.64897e-08
1.77634e-06
-1.18756e-07
1.7801e-06
6.22285e-08
1.77643e-06
-9.31234e-08
1.78013e-06
4.10875e-08
1.7766e-06
-6.85015e-08
1.78016e-06
2.63026e-08
1.77675e-06
-4.96521e-08
1.78014e-06
1.4867e-08
1.77686e-06
-3.51089e-08
1.77991e-06
5.57632e-09
1.77692e-06
-2.23752e-08
1.77939e-06
-8.14538e-10
1.77682e-06
-1.12346e-08
1.7784e-06
-3.79026e-09
1.77626e-06
-2.06571e-09
1.77683e-06
-3.233e-09
1.77427e-06
6.32149e-09
1.77478e-06
1.5436e-09
1.76865e-06
1.98617e-08
1.77497e-06
1.51811e-08
1.77655e-06
4.48696e-08
2.70891e-08
1.83228e-06
1.85859e-06
-3.02522e-07
1.86366e-06
2.34509e-07
1.85837e-06
-2.59487e-07
1.86291e-06
1.65262e-07
1.85897e-06
-1.85759e-07
1.8637e-06
1.30843e-07
1.85964e-06
-1.44181e-07
1.86395e-06
9.21807e-08
1.85977e-06
-1.14575e-07
1.86378e-06
5.8216e-08
1.85972e-06
-8.90646e-08
1.86364e-06
3.7173e-08
1.85978e-06
-6.46421e-08
1.86351e-06
2.25642e-08
1.85988e-06
-4.60155e-08
1.86334e-06
1.14011e-08
1.85996e-06
-3.1728e-08
1.86294e-06
2.5976e-09
1.86e-06
-1.94377e-08
1.8622e-06
-3.01155e-09
1.85989e-06
-8.92233e-09
1.86098e-06
-4.88517e-09
1.85935e-06
-4.31264e-10
1.85901e-06
-2.8894e-09
1.85783e-06
7.49352e-09
1.85573e-06
3.64638e-09
1.85401e-06
2.15784e-08
1.84894e-06
2.02533e-08
1.83911e-06
5.47032e-08
6.30258e-08
1.80317e-06
1.94722e-06
-2.96903e-07
1.95272e-06
2.29004e-07
1.94684e-06
-2.53603e-07
1.95165e-06
1.60454e-07
1.94713e-06
-1.81236e-07
1.95225e-06
1.25723e-07
1.94772e-06
-1.39653e-07
1.95241e-06
8.74834e-08
1.94781e-06
-1.09972e-07
1.95215e-06
5.38757e-08
1.9477e-06
-8.46098e-08
1.95186e-06
3.30058e-08
1.9477e-06
-6.04792e-08
1.9516e-06
1.86626e-08
1.94779e-06
-4.22062e-08
1.95129e-06
7.90885e-09
1.94789e-06
-2.83362e-08
1.9507e-06
-2.1238e-10
1.94795e-06
-1.66823e-08
1.94976e-06
-4.82676e-09
1.94782e-06
-6.98221e-09
1.94835e-06
-5.41171e-09
1.94727e-06
6.4763e-10
1.94611e-06
-1.72817e-09
1.94579e-06
7.81152e-09
1.94217e-06
7.26908e-09
1.94312e-06
2.06227e-08
1.93193e-06
3.14523e-08
1.92728e-06
5.9352e-08
9.42957e-08
1.89601e-06
2.04011e-06
-2.90828e-07
2.04621e-06
2.22911e-07
2.03968e-06
-2.47073e-07
2.0449e-06
1.55234e-07
2.03975e-06
-1.76094e-07
2.04536e-06
1.20118e-07
2.04033e-06
-1.34626e-07
2.04548e-06
8.23377e-08
2.04044e-06
-1.04933e-07
2.04514e-06
4.91737e-08
2.04031e-06
-7.97806e-08
2.04474e-06
2.85819e-08
2.04032e-06
-5.60651e-08
2.04435e-06
1.46377e-08
2.04045e-06
-3.83109e-08
2.04388e-06
4.4757e-09
2.04061e-06
-2.50617e-08
2.04313e-06
-2.72893e-09
2.0407e-06
-1.42593e-08
2.04202e-06
-6.14589e-09
2.04056e-06
-5.52267e-09
2.04049e-06
-5.34155e-09
2.03985e-06
1.28966e-09
2.03836e-06
-2.35048e-10
2.03767e-06
8.50328e-09
2.03449e-06
1.04433e-08
2.0334e-06
2.17137e-08
2.02633e-06
3.85236e-08
2.01482e-06
7.08619e-08
1.2757e-07
1.98154e-06
2.13746e-06
-2.84291e-07
2.14424e-06
2.16132e-07
2.13701e-06
-2.3984e-07
2.14275e-06
1.49496e-07
2.13696e-06
-1.70305e-07
2.14311e-06
1.13965e-07
2.13756e-06
-1.29075e-07
2.14319e-06
7.67126e-08
2.13771e-06
-9.94548e-08
2.14278e-06
4.41047e-08
2.13761e-06
-7.46132e-08
2.14227e-06
2.39257e-08
2.13767e-06
-5.14696e-08
2.14175e-06
1.05549e-08
2.13788e-06
-3.44328e-08
2.14115e-06
1.20228e-09
2.13811e-06
-2.20243e-08
2.14024e-06
-4.85546e-09
2.13825e-06
-1.22705e-08
2.13903e-06
-6.92531e-09
2.13803e-06
-4.52677e-09
2.13761e-06
-4.9149e-09
2.13678e-06
2.1129e-09
2.13594e-06
6.06733e-10
2.13379e-06
1.06577e-08
2.13194e-06
1.22922e-08
2.12632e-06
2.73334e-08
2.13228e-06
3.25603e-08
2.15594e-06
4.72088e-08
5.26405e-08
2.23086e-06
2.23948e-06
-2.77283e-07
2.24702e-06
2.08595e-07
2.23903e-06
-2.31851e-07
2.24536e-06
1.43165e-07
2.2389e-06
-1.63843e-07
2.24564e-06
1.07225e-07
2.23955e-06
-1.22987e-07
2.24566e-06
7.06008e-08
2.23976e-06
-9.35536e-08
2.24517e-06
3.8693e-08
2.23972e-06
-6.91649e-08
2.24455e-06
1.9099e-08
2.23987e-06
-4.67934e-08
2.2439e-06
6.52369e-09
2.24019e-06
-3.07177e-08
2.24315e-06
-1.75346e-09
2.24053e-06
-1.94065e-08
2.2421e-06
-6.42407e-09
2.24072e-06
-1.08917e-08
2.2408e-06
-7.00348e-09
2.24047e-06
-4.20588e-09
2.23921e-06
-3.6549e-09
2.23937e-06
1.95394e-09
2.23707e-06
2.91236e-09
2.23651e-06
1.12147e-08
2.23311e-06
1.56902e-08
2.23073e-06
2.97153e-08
2.22369e-06
3.96024e-08
2.20765e-06
6.32442e-08
8.34981e-08
2.1768e-06
2.34638e-06
-2.69787e-07
2.35473e-06
2.00245e-07
2.34593e-06
-2.23055e-07
2.35291e-06
1.36187e-07
2.34575e-06
-1.56684e-07
2.3531e-06
9.98742e-08
2.34648e-06
-1.1636e-07
2.35306e-06
6.40135e-08
2.34677e-06
-8.72593e-08
2.35248e-06
3.29861e-08
2.34682e-06
-6.35113e-08
2.35173e-06
1.41901e-08
2.34709e-06
-4.21556e-08
2.35094e-06
2.67584e-09
2.34755e-06
-2.73228e-08
2.35002e-06
-4.23081e-09
2.34799e-06
-1.73695e-08
2.34887e-06
-7.31169e-09
2.3482e-06
-1.02145e-08
2.34753e-06
-6.33477e-09
2.34792e-06
-4.5964e-09
2.3457e-06
-1.43444e-09
2.34712e-06
5.30996e-10
2.34292e-06
7.11706e-09
2.3447e-06
9.43594e-09
2.33882e-06
2.15677e-08
2.33973e-06
2.88079e-08
2.32491e-06
5.44139e-08
2.31537e-06
7.27835e-08
1.07736e-07
2.29114e-06
2.4584e-06
-2.61792e-07
2.4676e-06
1.91043e-07
2.45796e-06
-2.13415e-07
2.46562e-06
1.28532e-07
2.45775e-06
-1.48819e-07
2.46571e-06
9.19154e-08
2.45857e-06
-1.09215e-07
2.46559e-06
5.69913e-08
2.45896e-06
-8.06341e-08
2.46488e-06
2.70685e-08
2.45913e-06
-5.77614e-08
2.464e-06
9.32195e-09
2.45954e-06
-3.76953e-08
2.46307e-06
-8.54355e-10
2.46012e-06
-2.43685e-08
2.46204e-06
-6.15247e-09
2.4606e-06
-1.59349e-08
2.4609e-06
-7.60643e-09
2.46066e-06
-9.97279e-09
2.45977e-06
-5.45181e-09
2.45996e-06
-4.78218e-09
2.45852e-06
3.54756e-12
2.45831e-06
7.44673e-10
2.45619e-06
9.23761e-09
2.45478e-06
1.08466e-08
2.45164e-06
2.46988e-08
2.44912e-06
3.13282e-08
2.441e-06
6.25341e-08
2.42284e-06
9.09505e-08
1.41935e-07
2.38864e-06
2.57579e-06
-2.53293e-07
2.58588e-06
1.8096e-07
2.57537e-06
-2.02909e-07
2.58371e-06
1.2019e-07
2.57515e-06
-1.40256e-07
2.58369e-06
8.33746e-08
2.57607e-06
-1.01598e-07
2.58347e-06
4.96007e-08
2.5766e-06
-7.37698e-08
2.58261e-06
2.10559e-08
2.57691e-06
-5.20541e-08
2.58158e-06
4.64493e-09
2.57746e-06
-3.35682e-08
2.58053e-06
-3.92318e-09
2.57813e-06
-2.19692e-08
2.57944e-06
-7.46848e-09
2.57858e-06
-1.50693e-08
2.57842e-06
-7.45263e-09
2.57836e-06
-9.91129e-09
2.57766e-06
-4.75016e-09
2.57701e-06
-4.12891e-09
2.57719e-06
-1.79342e-10
2.5744e-06
3.53451e-09
2.5755e-06
8.13636e-09
2.57011e-06
1.62362e-08
2.5694e-06
2.54064e-08
2.56155e-06
3.91858e-08
2.57857e-06
4.55063e-08
2.61439e-06
5.51318e-08
5.50367e-08
2.70129e-06
2.69882e-06
-2.44286e-07
2.7098e-06
1.69979e-07
2.69842e-06
-1.91529e-07
2.70745e-06
1.11168e-07
2.69821e-06
-1.31023e-07
2.70729e-06
7.43009e-08
2.69927e-06
-9.35824e-08
2.70693e-06
4.19399e-08
2.69996e-06
-6.67968e-08
2.7059e-06
1.51092e-08
2.70043e-06
-4.65766e-08
2.70471e-06
3.63033e-10
2.70114e-06
-2.99947e-08
2.70352e-06
-6.312e-09
2.70187e-06
-2.03139e-08
2.70243e-06
-8.03446e-09
2.70227e-06
-1.49064e-08
2.70145e-06
-6.63111e-09
2.70201e-06
-1.04694e-08
2.70052e-06
-3.26174e-09
2.70105e-06
-4.65669e-09
2.69925e-06
1.6216e-09
2.69903e-06
3.75004e-09
2.69677e-06
1.04015e-08
2.69493e-06
1.80771e-08
2.69206e-06
2.82748e-08
2.68858e-06
4.26675e-08
2.67953e-06
5.45476e-08
2.65839e-06
7.62745e-08
8.98807e-08
2.62355e-06
2.82775e-06
-2.34765e-07
2.83964e-06
1.5809e-07
2.82739e-06
-1.79278e-07
2.83707e-06
1.01482e-07
2.8272e-06
-1.2115e-07
2.83675e-06
6.47539e-08
2.82841e-06
-8.52459e-08
2.83624e-06
3.41091e-08
2.82928e-06
-5.98391e-08
2.83504e-06
9.35587e-09
2.82988e-06
-4.14209e-08
2.83372e-06
-3.47615e-09
2.83072e-06
-2.69968e-08
2.83245e-06
-8.04062e-09
2.83148e-06
-1.93399e-08
2.83141e-06
-7.9655e-09
2.83176e-06
-1.52612e-08
2.83049e-06
-5.35751e-09
2.83155e-06
-1.15354e-08
2.82915e-06
-8.53042e-10
2.83113e-06
-6.64578e-09
2.82682e-06
5.93263e-09
2.83014e-06
4.36499e-10
2.82366e-06
1.68746e-08
2.82728e-06
1.44608e-08
2.81964e-06
3.59173e-08
2.82075e-06
4.15561e-08
2.80017e-06
7.51225e-08
2.79075e-06
8.56948e-08
1.14641e-07
2.76599e-06
2.96287e-06
-2.2474e-07
2.97565e-06
1.45315e-07
2.96256e-06
-1.66194e-07
2.97285e-06
9.11959e-08
2.96242e-06
-1.1072e-07
2.97232e-06
5.48535e-08
2.96381e-06
-7.67352e-08
2.97162e-06
2.62936e-08
2.96491e-06
-5.31307e-08
2.97017e-06
4.09844e-09
2.96578e-06
-3.7029e-08
2.96862e-06
-6.31795e-09
2.96672e-06
-2.50948e-08
2.96742e-06
-8.73976e-09
2.96729e-06
-1.92111e-08
2.96666e-06
-7.33851e-09
2.96722e-06
-1.582e-08
2.96611e-06
-4.24043e-09
2.96669e-06
-1.21198e-08
2.96523e-06
6.10739e-10
2.96544e-06
-6.85766e-09
2.96358e-06
7.78693e-09
2.96342e-06
5.95478e-10
2.9603e-06
1.99945e-08
2.95872e-06
1.60495e-08
2.95623e-06
3.84027e-08
2.95355e-06
4.42393e-08
2.94256e-06
8.6108e-08
2.9171e-06
1.1116e-07
1.52569e-07
2.87917e-06
3.1045e-06
-2.14233e-07
3.11812e-06
1.31692e-07
3.10427e-06
-1.52342e-07
3.11508e-06
8.03894e-08
3.10418e-06
-9.98266e-08
3.11432e-06
4.47202e-08
3.10576e-06
-6.81767e-08
3.11343e-06
1.8618e-08
3.10706e-06
-4.67592e-08
3.11184e-06
-6.8228e-10
3.10797e-06
-3.31511e-08
3.11038e-06
-8.73414e-09
3.10868e-06
-2.33912e-08
3.10963e-06
-9.68888e-09
3.10856e-06
-1.81418e-08
3.10971e-06
-8.48651e-09
3.1075e-06
-1.36134e-08
3.11018e-06
-6.9235e-09
3.10557e-06
-7.50505e-09
3.11069e-06
-4.51489e-09
3.10284e-06
1.00017e-09
3.11051e-06
1.16972e-10
3.10006e-06
1.10407e-08
3.10812e-06
1.19378e-08
3.09588e-06
2.82885e-08
3.09937e-06
3.49139e-08
3.08884e-06
5.47703e-08
3.12171e-06
5.32341e-08
3.16784e-06
6.5031e-08
6.03817e-08
3.26003e-06
3.25296e-06
-2.03279e-07
3.26736e-06
1.17283e-07
3.25285e-06
-1.3783e-07
3.26406e-06
6.91847e-08
3.25284e-06
-8.86089e-08
3.26303e-06
3.45338e-08
3.25463e-06
-5.97756e-08
3.26191e-06
1.133e-08
3.2562e-06
-4.10473e-08
3.26007e-06
-4.54612e-09
3.25733e-06
-3.0411e-08
3.25847e-06
-9.88147e-09
3.25815e-06
-2.30682e-08
3.25756e-06
-9.10347e-09
3.25833e-06
-1.89096e-08
3.25705e-06
-7.20356e-09
3.25827e-06
-1.48382e-08
3.25612e-06
-4.76716e-09
3.25821e-06
-9.6022e-09
3.25436e-06
-6.5995e-10
3.25778e-06
-2.4239e-09
3.25178e-06
6.11971e-09
3.25558e-06
7.24554e-09
3.24849e-06
1.90277e-08
3.25243e-06
2.43447e-08
3.24627e-06
4.10787e-08
3.2478e-06
5.32337e-08
3.2271e-06
7.3932e-08
3.20356e-06
8.85793e-08
1.02219e-07
3.16172e-06
3.40856e-06
-1.91908e-07
3.42368e-06
1.02168e-07
3.40864e-06
-1.22793e-07
3.42009e-06
5.77306e-08
3.40871e-06
-7.7229e-08
3.41874e-06
2.45075e-08
3.41073e-06
-5.17691e-08
3.41736e-06
4.7017e-09
3.41263e-06
-3.63209e-08
3.41521e-06
-7.1221e-09
3.41399e-06
-2.91912e-08
3.41354e-06
-9.42797e-09
3.41476e-06
-2.42916e-08
3.41267e-06
-7.01751e-09
3.41496e-06
-2.11941e-08
3.41201e-06
-4.25931e-09
3.41511e-06
-1.79366e-08
3.41092e-06
-5.71201e-10
3.4149e-06
-1.35821e-08
3.40926e-06
4.97727e-09
3.41437e-06
-7.53382e-09
3.40639e-06
1.40946e-08
3.4125e-06
1.13978e-09
3.4033e-06
2.82299e-08
3.40841e-06
1.92286e-08
3.40217e-06
4.73236e-08
3.40701e-06
4.83914e-08
3.38265e-06
9.82967e-08
3.35564e-06
1.15588e-07
1.46719e-07
3.31114e-06
3.57169e-06
-1.80185e-07
3.58738e-06
8.64771e-08
3.572e-06
-1.07418e-07
3.58353e-06
4.62083e-08
3.57214e-06
-6.58427e-08
3.58187e-06
1.47813e-08
3.57424e-06
-4.41467e-08
3.58049e-06
-1.54721e-09
3.57598e-06
-3.18101e-08
3.5788e-06
-9.94116e-09
3.5766e-06
-2.69859e-08
3.57818e-06
-1.10111e-08
3.57613e-06
-2.22475e-08
3.57866e-06
-9.54058e-09
3.57479e-06
-1.73233e-08
3.57972e-06
-9.18946e-09
3.57266e-06
-1.08809e-08
3.58124e-06
-9.15093e-09
3.56979e-06
-2.12746e-09
3.58203e-06
-7.26248e-09
3.56671e-06
7.78468e-09
3.58231e-06
-1.50385e-09
3.56373e-06
1.97127e-08
3.58019e-06
1.17698e-08
3.55992e-06
3.95037e-08
3.57024e-06
3.69998e-08
3.55612e-06
6.25162e-08
3.60464e-06
4.97749e-08
3.65677e-06
6.34594e-08
5.87584e-08
3.74473e-06
3.74271e-06
-1.68191e-07
3.75881e-06
7.03766e-08
3.74337e-06
-9.19764e-08
3.7547e-06
3.48753e-08
3.74356e-06
-5.47001e-08
3.75264e-06
5.70037e-09
3.74583e-06
-3.73322e-08
3.7511e-06
-6.81595e-09
3.74774e-06
-2.845e-08
3.74924e-06
-1.14447e-08
3.74877e-06
-2.65153e-08
3.74789e-06
-1.01333e-08
3.74954e-06
-2.38949e-08
3.74655e-06
-6.54757e-09
3.75046e-06
-2.12418e-08
3.74496e-06
-3.6878e-09
3.75123e-06
-1.71507e-08
3.74327e-06
-1.18813e-09
3.7515e-06
-1.03597e-08
3.74178e-06
2.46062e-09
3.75002e-06
-4.60579e-10
3.7394e-06
9.12297e-09
3.74695e-06
1.2162e-08
3.73736e-06
2.13522e-08
3.74529e-06
3.15832e-08
3.73846e-06
4.38241e-08
3.73825e-06
6.27317e-08
3.71497e-06
7.30519e-08
3.68455e-06
9.38756e-08
1.07972e-07
3.63534e-06
3.92199e-06
-1.55996e-07
3.9383e-06
5.40667e-08
3.92315e-06
-7.68183e-08
3.93395e-06
2.40667e-08
3.92339e-06
-4.41346e-08
3.9314e-06
-2.31502e-09
3.92567e-06
-3.16011e-08
3.92989e-06
-1.10312e-08
3.92744e-06
-2.59981e-08
3.92831e-06
-1.23229e-08
3.92837e-06
-2.65746e-08
3.92687e-06
-8.63016e-09
3.92958e-06
-2.66095e-08
3.92489e-06
-1.85112e-09
3.93111e-06
-2.74601e-08
3.92255e-06
4.87259e-09
3.93284e-06
-2.7448e-08
3.91971e-06
1.19463e-08
3.93434e-06
-2.49915e-08
3.91637e-06
2.04297e-08
3.93494e-06
-1.90241e-08
3.91326e-06
3.0796e-08
3.9339e-06
-8.47755e-09
3.91171e-06
4.35406e-08
3.93423e-06
9.06266e-09
3.91591e-06
6.21459e-08
3.93681e-06
4.18363e-08
3.89109e-06
1.1877e-07
3.85852e-06
1.26443e-07
1.5575e-07
3.81074e-06
4.10995e-06
-1.43701e-07
4.12625e-06
3.77705e-08
4.11172e-06
-6.22865e-08
4.1218e-06
1.39833e-08
4.11168e-06
-3.40152e-08
4.11917e-06
-9.79881e-09
4.11337e-06
-2.58058e-08
4.11866e-06
-1.63199e-08
4.11357e-06
-2.09079e-08
4.11919e-06
-1.7939e-08
4.1121e-06
-1.94856e-08
4.1204e-06
-1.69347e-08
4.11002e-06
-1.62308e-08
4.12206e-06
-1.38894e-08
4.10784e-06
-1.32423e-08
4.12336e-06
-1.06431e-08
4.10603e-06
-1.01217e-08
4.12393e-06
-5.94773e-09
4.10438e-06
-5.44408e-09
4.1236e-06
1.20721e-09
4.10298e-06
1.60253e-09
4.12129e-06
1.24793e-08
4.10106e-06
1.17558e-08
4.11713e-06
2.7466e-08
4.09846e-06
2.77362e-08
4.11659e-06
4.40204e-08
4.10811e-06
5.03141e-08
4.15889e-06
6.79886e-08
4.211e-06
7.43273e-08
8.56175e-08
4.28114e-06
4.30707e-06
-1.31467e-07
4.32297e-06
2.18696e-08
4.30997e-06
-4.92865e-08
4.3184e-06
5.55662e-09
4.30967e-06
-2.52852e-08
4.31511e-06
-1.52462e-08
4.3111e-06
-2.17953e-08
4.31467e-06
-1.98843e-08
4.31119e-06
-1.74288e-08
4.31548e-06
-2.22263e-08
4.30977e-06
-1.37841e-08
4.31663e-06
-2.3788e-08
4.30783e-06
-7.43715e-09
4.31834e-06
-2.44003e-08
4.30538e-06
-2.76763e-10
4.31989e-06
-2.51525e-08
4.30331e-06
6.45308e-09
4.32079e-06
-2.34203e-08
4.30135e-06
1.3997e-08
4.3206e-06
-1.80468e-08
4.29939e-06
2.28077e-08
4.31956e-06
-7.6904e-09
4.2971e-06
3.42244e-08
4.31542e-06
9.13953e-09
4.29352e-06
4.96362e-08
4.31286e-06
2.46837e-08
4.31113e-06
5.20389e-08
4.36203e-06
1.70884e-08
4.41038e-06
2.59841e-08
4.64959e-09
4.49135e-06
4.5138e-06
-1.19495e-07
4.52879e-06
6.8847e-09
4.51893e-06
-3.94259e-08
4.52437e-06
1.12272e-10
4.51733e-06
-1.82459e-08
4.52039e-06
-1.83071e-08
4.51848e-06
-1.98823e-08
4.51923e-06
-2.06398e-08
4.51963e-06
-1.78203e-08
4.51878e-06
-2.13769e-08
4.52051e-06
-1.55176e-08
4.51752e-06
-2.07954e-08
4.5214e-06
-1.1319e-08
4.51603e-06
-1.9027e-08
4.52217e-06
-6.42033e-09
4.51484e-06
-1.78226e-08
4.52252e-06
-1.22809e-09
4.5137e-06
-1.46011e-08
4.52188e-06
5.82212e-09
4.51202e-06
-8.18998e-09
4.51937e-06
1.5457e-08
4.50859e-06
3.09444e-09
4.51349e-06
2.9318e-08
4.50487e-06
1.77612e-08
4.51264e-06
4.18677e-08
4.50543e-06
3.18887e-08
4.50911e-06
4.83625e-08
4.48061e-06
4.5586e-08
4.44297e-06
6.36242e-08
6.22828e-08
4.38534e-06
4.73037e-06
-1.07751e-07
4.74477e-06
-7.51642e-09
4.73589e-06
-3.05427e-08
4.74102e-06
-5.02314e-09
4.7342e-06
-1.1417e-08
4.73642e-06
-2.05361e-08
4.73502e-06
-1.84733e-08
4.73465e-06
-2.02717e-08
4.73719e-06
-2.03631e-08
4.73333e-06
-1.75165e-08
4.73897e-06
-2.11605e-08
4.73127e-06
-1.30945e-08
4.74053e-06
-2.05729e-08
4.729e-06
-7.50425e-09
4.74206e-06
-1.9477e-08
4.72708e-06
-2.84106e-09
4.74298e-06
-1.7129e-08
4.72548e-06
2.89692e-09
4.74281e-06
-1.15105e-08
4.72429e-06
1.03326e-08
4.7415e-06
-1.75577e-09
4.72314e-06
2.14604e-08
4.74031e-06
1.21429e-08
4.72336e-06
3.4718e-08
4.73721e-06
2.80133e-08
4.715e-06
5.41017e-08
4.71214e-06
5.12211e-08
4.68732e-06
7.04061e-08
4.68088e-06
7.00647e-08
9.46814e-08
4.64848e-06
4.95773e-06
-9.66781e-08
4.96959e-06
-1.93852e-08
4.9666e-06
-2.75459e-08
4.96524e-06
-3.66699e-09
4.96533e-06
-1.15023e-08
4.96059e-06
-1.57996e-08
4.96365e-06
-2.15372e-08
4.96008e-06
-1.66978e-08
4.96445e-06
-2.4732e-08
4.96015e-06
-1.32175e-08
4.96479e-06
-2.57995e-08
4.95966e-06
-7.96208e-09
4.9649e-06
-2.58132e-08
4.95895e-06
-1.55374e-09
4.96466e-06
-2.51928e-08
4.95876e-06
3.05723e-09
4.96391e-06
-2.2275e-08
4.95792e-06
8.88798e-09
4.96175e-06
-1.5344e-08
4.95448e-06
1.76068e-08
4.95647e-06
-3.75178e-09
4.9499e-06
2.80331e-08
4.95135e-06
1.06982e-08
4.94764e-06
3.84195e-08
4.94811e-06
2.75469e-08
4.94991e-06
5.23019e-08
4.94781e-06
5.33219e-08
4.91934e-06
9.88716e-08
4.87586e-06
1.13549e-07
1.3123e-07
4.83931e-06
5.19564e-06
-8.60055e-08
5.20707e-06
-3.08097e-08
5.20219e-06
-2.26655e-08
5.20607e-06
-7.54674e-09
5.19755e-06
-2.98109e-09
5.20423e-06
-2.24857e-08
5.19501e-06
-1.23106e-08
5.20575e-06
-2.74456e-08
5.19327e-06
-1.22516e-08
5.2079e-06
-2.78415e-08
5.19105e-06
-8.94864e-09
5.20951e-06
-2.64211e-08
5.18885e-06
-5.16247e-09
5.21085e-06
-2.35519e-08
5.18722e-06
-1.56409e-09
5.21128e-06
-2.09981e-08
5.18668e-06
2.32386e-09
5.21068e-06
-1.51072e-08
5.18667e-06
8.6601e-09
5.20956e-06
-5.28328e-09
5.18711e-06
1.86987e-08
5.20628e-06
8.86442e-09
5.18291e-06
3.40726e-08
5.19361e-06
2.77136e-08
5.17338e-06
4.77791e-08
5.1851e-06
4.05823e-08
5.19096e-06
4.74574e-08
5.26317e-06
2.66652e-08
5.35021e-06
2.65082e-08
2.72232e-08
5.45422e-06
5.44551e-06
-7.63272e-08
5.45228e-06
-3.75754e-08
5.45551e-06
-2.59003e-08
5.44914e-06
-1.17568e-09
5.45497e-06
-8.80616e-09
5.4453e-06
-1.28243e-08
5.4521e-06
-1.91074e-08
5.44519e-06
-2.05393e-08
5.45161e-06
-1.86663e-08
5.4463e-06
-2.25346e-08
5.451e-06
-1.36426e-08
5.44698e-06
-2.24038e-08
5.45e-06
-8.18497e-09
5.44647e-06
-2.00205e-08
5.4486e-06
-3.68976e-09
5.44464e-06
-1.70422e-08
5.44584e-06
1.12593e-09
5.44241e-06
-1.1677e-08
5.44273e-06
8.33412e-09
5.43927e-06
-1.81533e-09
5.44e-06
1.79633e-08
5.43581e-06
1.30577e-08
5.43622e-06
3.36615e-08
5.4342e-06
2.97365e-08
5.43549e-06
4.64801e-08
5.43477e-06
4.13027e-08
5.42415e-06
5.80859e-08
5.3979e-06
5.29111e-08
5.3594e-06
6.5009e-08
6.51466e-08
5.32148e-06
5.70685e-06
-6.7214e-08
5.71289e-06
-4.3618e-08
5.71436e-06
-2.7369e-08
5.71437e-06
-1.18517e-09
5.71385e-06
-8.28777e-09
5.70961e-06
-8.58757e-09
5.71031e-06
-1.98046e-08
5.70674e-06
-1.69751e-08
5.71133e-06
-2.32511e-08
5.70696e-06
-1.81673e-08
5.71264e-06
-1.93173e-08
5.70634e-06
-1.61055e-08
5.71292e-06
-1.47688e-08
5.70508e-06
-1.21782e-08
5.71287e-06
-1.14834e-08
5.70441e-06
-8.57929e-09
5.71249e-06
-6.95767e-09
5.70271e-06
-1.89598e-09
5.70944e-06
1.60829e-09
5.69956e-06
8.06101e-09
5.70374e-06
1.37813e-08
5.69635e-06
2.04476e-08
5.70135e-06
2.86639e-08
5.69423e-06
3.68586e-08
5.69455e-06
4.61601e-08
5.6821e-06
5.37573e-08
5.6772e-06
6.29838e-08
5.66006e-06
7.00446e-08
5.64512e-06
7.99498e-08
8.80167e-08
5.62225e-06
5.98099e-06
-5.90076e-08
5.9825e-06
-4.51301e-08
5.98837e-06
-3.32363e-08
5.98657e-06
6.11198e-10
5.98919e-06
-1.09074e-08
5.98083e-06
-2.25657e-10
5.98686e-06
-2.5836e-08
5.97814e-06
-8.25214e-09
5.98764e-06
-3.27563e-08
5.97826e-06
-8.78682e-09
5.98781e-06
-2.88712e-08
5.9784e-06
-6.68926e-09
5.98699e-06
-2.33626e-08
5.97843e-06
-3.62101e-09
5.98465e-06
-1.76947e-08
5.97703e-06
-9.67767e-10
5.97975e-06
-9.66857e-09
5.97367e-06
4.17587e-09
5.97616e-06
-8.8263e-10
5.9713e-06
1.29281e-08
5.97398e-06
1.1101e-08
5.96962e-06
2.48019e-08
5.97312e-06
2.5168e-08
5.96812e-06
4.1859e-08
5.96761e-06
4.66649e-08
5.95571e-06
6.56611e-08
5.94959e-06
6.91051e-08
5.93265e-06
8.69786e-08
5.91997e-06
9.26321e-08
1.02979e-07
5.90501e-06
6.26822e-06
-5.17435e-08
6.26567e-06
-4.25809e-08
6.27552e-06
-4.30767e-08
6.27e-06
6.1237e-09
6.27767e-06
-1.85779e-08
6.26564e-06
1.18068e-08
6.27487e-06
-3.50698e-08
6.26385e-06
2.77245e-09
6.2749e-06
-4.38076e-08
6.26412e-06
1.99606e-09
6.27478e-06
-3.95311e-08
6.26423e-06
3.85848e-09
6.27405e-06
-3.31845e-08
6.26395e-06
6.47736e-09
6.27261e-06
-2.6347e-08
6.26231e-06
9.32472e-09
6.26949e-06
-1.6847e-08
6.25898e-06
1.46898e-08
6.26434e-06
-6.2439e-09
6.2567e-06
2.0567e-08
6.26036e-06
7.43891e-09
6.25393e-06
3.12311e-08
6.25605e-06
2.30548e-08
6.25367e-06
4.42387e-08
6.26118e-06
3.91544e-08
6.25715e-06
6.96841e-08
6.24826e-06
7.79981e-08
6.21352e-06
1.21722e-07
6.16486e-06
1.4129e-07
1.29662e-07
6.13818e-06
6.56774e-06
-4.40124e-08
6.57672e-06
-5.15654e-08
6.56122e-06
-2.75761e-08
6.58023e-06
-1.28795e-08
6.56044e-06
1.21204e-09
6.58118e-06
-8.93799e-09
6.55907e-06
-1.29564e-08
6.58097e-06
-1.91323e-08
6.55873e-06
-2.15697e-08
6.58101e-06
-2.02817e-08
6.55865e-06
-1.71673e-08
6.58027e-06
-1.77644e-08
6.5589e-06
-1.18106e-08
6.57911e-06
-1.37392e-08
6.55937e-06
-6.60821e-09
6.57809e-06
-9.39032e-09
6.56025e-06
9.96488e-10
6.57555e-06
-6.10926e-10
6.55917e-06
1.01349e-08
6.56878e-06
1.09574e-08
6.55558e-06
2.06366e-08
6.56232e-06
2.44887e-08
6.54895e-06
3.64285e-08
6.55118e-06
4.20075e-08
6.54241e-06
4.79192e-08
6.57002e-06
4.20742e-08
6.60438e-06
4.36386e-08
6.686e-06
4.0106e-08
6.78621e-06
4.10786e-08
5.87591e-08
6.85711e-06
6.88455e-06
-3.87726e-08
6.87784e-06
-4.48519e-08
6.88966e-06
-3.93961e-08
6.88108e-06
-4.30569e-09
6.89316e-06
-1.08689e-08
6.88147e-06
2.75764e-09
6.88907e-06
-2.05548e-08
6.88055e-06
-1.062e-08
6.88687e-06
-2.78869e-08
6.88021e-06
-1.36151e-08
6.88674e-06
-2.37013e-08
6.87998e-06
-1.10028e-08
6.88615e-06
-1.79871e-08
6.8781e-06
-5.68078e-09
6.88293e-06
-1.14453e-08
6.8742e-06
-6.57071e-10
6.87856e-06
-3.36301e-09
6.87123e-06
6.72006e-09
6.87464e-06
6.72573e-09
6.86934e-06
1.62594e-08
6.87267e-06
1.73069e-08
6.87281e-06
2.43406e-08
6.88617e-06
2.30746e-08
6.89856e-06
2.96159e-08
6.90995e-06
3.65263e-08
6.89659e-06
5.54388e-08
6.86954e-06
7.06864e-08
6.8173e-06
9.23421e-08
6.75133e-06
1.07052e-07
8.19952e-08
6.72809e-06
7.21246e-06
-3.21011e-08
7.22392e-06
-5.63062e-08
7.20137e-06
-1.68504e-08
7.22609e-06
-2.90209e-08
7.20168e-06
1.35417e-08
7.22754e-06
-2.31068e-08
7.2013e-06
5.68406e-09
7.22677e-06
-3.6089e-08
7.20212e-06
-3.23834e-09
7.22508e-06
-3.65712e-08
7.2032e-06
-1.81968e-09
7.22296e-06
-3.07644e-08
7.20418e-06
7.93116e-10
7.22165e-06
-2.31539e-08
7.20558e-06
4.62755e-09
7.21829e-06
-1.33623e-08
7.20337e-06
1.15515e-08
7.21156e-06
-1.46675e-09
7.19919e-06
1.90963e-08
7.20591e-06
9.53715e-09
7.19764e-06
2.55809e-08
7.20256e-06
1.94132e-08
7.19048e-06
3.51611e-08
7.19098e-06
2.91103e-08
7.19112e-06
3.63928e-08
7.22262e-06
2.39335e-08
7.26963e-06
2.36795e-08
7.35326e-06
8.71007e-09
7.45686e-06
3.45251e-09