/*--------------------------------*- C++ -*----------------------------------*\
| =========                 |                                                 |
| \\      /  F ield         | OpenFOAM: The Open Source CFD Toolbox           |
|  \\    /   O peration     | Version:  v2006                                 |
|   \\  /    A nd           | Website:  www.openfoam.com                      |
|    \\/     M anipulation  |                                                 |
\*---------------------------------------------------------------------------*/
FoamFile
{
    version     2.0;
    format      ascii;
    class       volVectorField;
    location    "1";
    object      U;
}
// * * * * * * * * * * * * * * * * * * * * * * * * * * * * * * * * * * * * * //

dimensions      [0 1 -1 0 0 0 0];


internalField   nonuniform List<vector> 
26400
(
(0.909074 -0.00473453 0)
(1.0917 0.00456211 0)
(0.913458 -0.00458754 0)
(1.09147 0.00377978 0)
(0.919101 -0.00367693 0)
(1.09204 0.00347226 0)
(0.92487 -0.00336979 0)
(1.09262 0.00290105 0)
(0.930088 -0.00316907 0)
(1.09325 0.00230879 0)
(0.934365 -0.00291582 0)
(1.09372 0.00195485 0)
(0.937943 -0.00259626 0)
(1.09406 0.00168007 0)
(0.940741 -0.00233901 0)
(1.09455 0.00145624 0)
(0.942868 -0.0021411 0)
(1.09533 0.00123611 0)
(0.944117 -0.00191302 0)
(1.0965 0.00102509 0)
(0.944313 -0.00165737 0)
(1.09809 0.000819014 0)
(0.943231 -0.00140201 0)
(1.10014 0.000600373 0)
(0.940509 -0.00112231 0)
(1.10259 0.000348716 0)
(0.935599 -0.000640397 0)
(1.10493 3.03027e-05 0)
(0.927153 0.00111518 0)
(1.10609 0.00036545 0)
(0.915959 -0.00477328 0)
(1.08589 0.00456072 0)
(0.922842 -0.00465486 0)
(1.08563 0.00378501 0)
(0.930171 -0.00375179 0)
(1.08554 0.00346941 0)
(0.937325 -0.00345096 0)
(1.08502 0.00290065 0)
(0.943883 -0.00325321 0)
(1.08423 0.00231381 0)
(0.949606 -0.00299792 0)
(1.08295 0.00196551 0)
(0.954928 -0.00267587 0)
(1.08109 0.00169608 0)
(0.959925 -0.00241699 0)
(1.07879 0.00147512 0)
(0.964918 -0.00221747 0)
(1.07596 0.00126017 0)
(0.969998 -0.00198622 0)
(1.07235 0.00105898 0)
(0.975391 -0.00172486 0)
(1.06756 0.000870287 0)
(0.981385 -0.00145569 0)
(1.06106 0.000677914 0)
(0.988255 -0.00113449 0)
(1.0521 0.000441475 0)
(0.996144 -0.000517385 0)
(1.03943 0.000216149 0)
(1.00472 0.00202139 0)
(1.02043 0.00151363 0)
(0.928135 -0.00481838 0)
(1.07415 0.00453338 0)
(0.937804 -0.00471734 0)
(1.07355 0.0037656 0)
(0.947469 -0.0038157 0)
(1.07245 0.0034413 0)
(0.956356 -0.00350886 0)
(1.07034 0.00287207 0)
(0.964436 -0.00330166 0)
(1.06762 0.00228507 0)
(0.971648 -0.00303082 0)
(1.06423 0.00193035 0)
(0.978509 -0.0026873 0)
(1.06011 0.00164783 0)
(0.985033 -0.00240155 0)
(1.05546 0.00140219 0)
(0.991446 -0.00216412 0)
(1.05032 0.00115118 0)
(0.997682 -0.00187838 0)
(1.04477 0.000898441 0)
(1.00362 -0.00153904 0)
(1.03886 0.000640263 0)
(1.00901 -0.00116708 0)
(1.0327 0.000368564 0)
(1.01338 -0.000736305 0)
(1.0265 9.39135e-05 0)
(1.01603 -9.40497e-05 0)
(1.02027 6.24294e-05 0)
(1.01577 0.00216831 0)
(1.01449 0.00376277 0)
(0.943444 -0.00485094 0)
(1.05833 0.00445668 0)
(0.954446 -0.0047508 0)
(1.05713 0.00369258 0)
(0.965528 -0.00383794 0)
(1.05525 0.00336258 0)
(0.975121 -0.00350976 0)
(1.05204 0.00278926 0)
(0.983496 -0.0032801 0)
(1.0482 0.00219465 0)
(0.99069 -0.00298484 0)
(1.04405 0.0018254 0)
(0.997175 -0.00261202 0)
(1.03961 0.00152447 0)
(1.0028 -0.0022955 0)
(1.0352 0.00125539 0)
(1.00769 -0.00202555 0)
(1.031 0.000980797 0)
(1.01174 -0.00170817 0)
(1.02722 0.000709558 0)
(1.01481 -0.00133941 0)
(1.02391 0.000446636 0)
(1.01675 -0.000944973 0)
(1.02102 0.000193564 0)
(1.01737 -0.000497424 0)
(1.01839 -1.377e-05 0)
(1.01647 0.000187532 0)
(1.01556 0.000245153 0)
(1.01371 0.00255071 0)
(1.01261 0.00594745 0)
(0.959215 -0.00486311 0)
(1.04147 0.00434246 0)
(0.969477 -0.0047528 0)
(1.03976 0.00357692 0)
(0.980194 -0.00382512 0)
(1.03778 0.00324585 0)
(0.988866 -0.00346975 0)
(1.03454 0.00267135 0)
(0.995961 -0.00321642 0)
(1.03098 0.00207238 0)
(1.00159 -0.00290242 0)
(1.02766 0.00169542 0)
(1.00625 -0.00251006 0)
(1.02454 0.00138946 0)
(1.00977 -0.00217726 0)
(1.02186 0.00111613 0)
(1.01237 -0.00189406 0)
(1.01966 0.000840695 0)
(1.01411 -0.00156786 0)
(1.01798 0.000576497 0)
(1.01505 -0.00119493 0)
(1.01666 0.000335225 0)
(1.01521 -0.00079858 0)
(1.01543 0.00012411 0)
(1.01453 -0.000382943 0)
(1.01397 5.14933e-05 0)
(1.01291 5.86607e-05 0)
(1.01183 0.00110667 0)
(1.01022 0.00165765 0)
(1.00943 0.00843953 0)
(0.973072 -0.00485308 0)
(1.02649 0.00421642 0)
(0.980956 -0.00472804 0)
(1.02464 0.00344628 0)
(0.989769 -0.00379233 0)
(1.02323 0.00311986 0)
(0.996393 -0.00341207 0)
(1.0208 0.00255065 0)
(1.0014 -0.00314066 0)
(1.01833 0.00195451 0)
(1.00501 -0.0028178 0)
(1.01641 0.00157758 0)
(1.00778 -0.00241574 0)
(1.01483 0.00127539 0)
(1.00959 -0.00207474 0)
(1.01366 0.00100422 0)
(1.01074 -0.00178252 0)
(1.01279 0.000729572 0)
(1.01137 -0.00144925 0)
(1.01219 0.00047149 0)
(1.01156 -0.00107188 0)
(1.01165 0.000248941 0)
(1.01128 -0.000674969 0)
(1.0109 8.60369e-05 0)
(1.01042 -0.000286283 0)
(1.00968 0.000100615 0)
(1.00884 0.000263651 0)
(1.00769 0.00107448 0)
(1.00655 0.00262183 0)
(1.00576 0.00621419 0)
(0.983657 -0.00482324 0)
(1.01508 0.0040995 0)
(0.988541 -0.00468397 0)
(1.01343 0.0033235 0)
(0.994826 -0.00375055 0)
(1.01284 0.00300489 0)
(0.999219 -0.00334995 0)
(1.01143 0.00244438 0)
(1.00229 -0.00306512 0)
(1.01004 0.00185297 0)
(1.00429 -0.00273831 0)
(1.00919 0.00147549 0)
(1.0058 -0.00232877 0)
(1.00858 0.00117362 0)
(1.00671 -0.00197745 0)
(1.0082 0.000897238 0)
(1.00725 -0.00167019 0)
(1.0079 0.000612336 0)
(1.00753 -0.00131998 0)
(1.00767 0.00034294 0)
(1.00755 -0.000919412 0)
(1.00736 0.000113243 0)
(1.00721 -0.00048533 0)
(1.00676 -4.75474e-05 0)
(1.00637 -3.2459e-05 0)
(1.00563 -7.87382e-05 0)
(1.00485 0.000818486 0)
(1.00382 0.000609699 0)
(1.00271 0.00411634 0)
(1.0022 0.0046929 0)
(0.990803 -0.00477806 0)
(1.00749 0.00400032 0)
(0.993008 -0.00462692 0)
(1.00618 0.00321845 0)
(0.996992 -0.00370387 0)
(1.00625 0.00290568 0)
(0.999627 -0.00328644 0)
(1.00559 0.00235264 0)
(1.00135 -0.00299018 0)
(1.00489 0.00176339 0)
(1.00235 -0.00266051 0)
(1.00459 0.001382 0)
(1.00317 -0.00224488 0)
(1.00439 0.00107762 0)
(1.00366 -0.00188576 0)
(1.0043 0.000796916 0)
(1.00397 -0.00156953 0)
(1.0042 0.000507751 0)
(1.00411 -0.00121344 0)
(1.00409 0.000240786 0)
(1.00406 -0.000812093 0)
(1.00384 2.92732e-05 0)
(1.00369 -0.000406928 0)
(1.00327 -5.31437e-05 0)
(1.00285 -2.51858e-05 0)
(1.0022 0.000196888 0)
(1.00138 0.000333748 0)
(1.00053 0.00188701 0)
(0.99952 0.00262351 0)
(0.999207 0.0102352 0)
(0.995146 -0.00472154 0)
(1.00295 0.00391647 0)
(0.995451 -0.00456015 0)
(1.00195 0.00312943 0)
(0.997768 -0.00365162 0)
(1.00239 0.00281674 0)
(0.999275 -0.0032194 0)
(1.00215 0.00226745 0)
(1.00021 -0.00291162 0)
(1.00178 0.00167661 0)
(1.00064 -0.00257755 0)
(1.00167 0.00128756 0)
(1.00108 -0.00215491 0)
(1.0016 0.000976798 0)
(1.00134 -0.00178707 0)
(1.00159 0.000689184 0)
(1.00151 -0.00146078 0)
(1.00153 0.00039621 0)
(1.00155 -0.00110054 0)
(1.00143 0.000137426 0)
(1.00142 -0.000700405 0)
(1.00117 -5.1476e-05 0)
(1.00101 -0.000302773 0)
(1.00059 -8.54003e-05 0)
(1.00016 8.27231e-05 0)
(0.999485 0.000261697 0)
(0.998793 0.000455498 0)
(0.9979 0.00208203 0)
(0.99746 0.0023533 0)
(0.996869 0.010052 0)
(0.997578 -0.00465608 0)
(1.00044 0.00384017 0)
(0.996757 -0.00448463 0)
(0.999655 0.00304933 0)
(0.998034 -0.00359179 0)
(1.00024 0.00273025 0)
(0.998901 -0.00314614 0)
(1.00018 0.00218115 0)
(0.999407 -0.00282589 0)
(0.999963 0.00158592 0)
(0.999527 -0.0024846 0)
(0.999895 0.00118554 0)
(0.999721 -0.00205187 0)
(0.999837 0.000863024 0)
(0.999824 -0.00167094 0)
(0.999831 0.000561754 0)
(0.999893 -0.00132779 0)
(0.999759 0.000257176 0)
(0.999846 -0.000952069 0)
(0.999626 -7.35178e-06 0)
(0.999636 -0.000534362 0)
(0.999328 -0.000186709 0)
(0.999165 -9.72053e-05 0)
(0.998708 -0.000239139 0)
(0.998297 0.000416222 0)
(0.9976 -6.80594e-05 0)
(0.996971 0.00144042 0)
(0.996094 0.000799865 0)
(0.995857 0.00395778 0)
(0.995457 0.00268563 0)
(0.998864 -0.00458282 0)
(0.999123 0.00376369 0)
(0.997458 -0.00440031 0)
(0.998472 0.00297115 0)
(0.998147 -0.00352292 0)
(0.999073 0.00264082 0)
(0.998672 -0.00306563 0)
(0.999111 0.00209081 0)
(0.998955 -0.00273367 0)
(0.998957 0.00149263 0)
(0.998898 -0.00238614 0)
(0.998888 0.00108487 0)
(0.998936 -0.00194974 0)
(0.998816 0.000759426 0)
(0.99893 -0.00156739 0)
(0.998796 0.00045926 0)
(0.998919 -0.00122578 0)
(0.998703 0.000167409 0)
(0.998795 -0.000862626 0)
(0.998533 -6.67818e-05 0)
(0.998512 -0.00047696 0)
(0.998191 -0.000182278 0)
(0.997986 -9.84056e-05 0)
(0.997542 -0.000130785 0)
(0.99709 0.00036633 0)
(0.996457 0.000185913 0)
(0.99576 0.00142995 0)
(0.995046 0.00105232 0)
(0.994504 0.00407923 0)
(0.994903 0.00169851 0)
(0.999514 -0.00450222 0)
(0.998455 0.00368146 0)
(0.997831 -0.00430638 0)
(0.997889 0.00288932 0)
(0.998205 -0.00344308 0)
(0.998472 0.00254337 0)
(0.998549 -0.00297451 0)
(0.998556 0.00199002 0)
(0.998721 -0.00262843 0)
(0.998439 0.00138584 0)
(0.998568 -0.00226907 0)
(0.998364 0.000965678 0)
(0.998515 -0.00182196 0)
(0.998276 0.000627085 0)
(0.998444 -0.00142669 0)
(0.99824 0.000317181 0)
(0.998381 -0.00107583 0)
(0.998123 2.61513e-05 0)
(0.998207 -0.000703985 0)
(0.997917 -0.000201484 0)
(0.997876 -0.000319296 0)
(0.997534 -0.000295629 0)
(0.997318 5.7606e-05 0)
(0.996856 -0.000194165 0)
(0.996416 0.000512639 0)
(0.995778 0.00028713 0)
(0.995124 0.00134397 0)
(0.994467 0.00170162 0)
(0.993958 0.00399936 0)
(0.994863 0.0061639 0)
(0.999827 -0.00441466 0)
(0.998134 0.00359071 0)
(0.998019 -0.00420246 0)
(0.997624 0.00280146 0)
(0.998231 -0.00335283 0)
(0.998184 0.00243815 0)
(0.99848 -0.0028755 0)
(0.998294 0.00188283 0)
(0.998598 -0.00251748 0)
(0.998199 0.00127668 0)
(0.998398 -0.00215149 0)
(0.998122 0.000852871 0)
(0.998297 -0.00170421 0)
(0.998026 0.000515259 0)
(0.998189 -0.0013158 0)
(0.997979 0.000218025 0)
(0.998096 -0.000978929 0)
(0.997847 -4.73792e-05 0)
(0.997888 -0.000637707 0)
(0.997616 -0.000226091 0)
(0.997526 -0.000300234 0)
(0.997206 -0.00023579 0)
(0.996949 1.72457e-05 0)
(0.996514 -1.34751e-05 0)
(0.996055 0.000336163 0)
(0.995445 0.000696178 0)
(0.99483 0.00105229 0)
(0.994266 0.00249519 0)
(0.994012 0.00368967 0)
(0.99487 0.0103501 0)
(0.999967 -0.00432005 0)
(0.997995 0.00348928 0)
(0.998104 -0.0040869 0)
(0.997522 0.00270453 0)
(0.998239 -0.00325002 0)
(0.998064 0.00232139 0)
(0.998438 -0.00276374 0)
(0.998188 0.00176208 0)
(0.998531 -0.00239167 0)
(0.998107 0.00115283 0)
(0.99831 -0.00201674 0)
(0.998032 0.000722458 0)
(0.998188 -0.00156534 0)
(0.997931 0.000382878 0)
(0.998064 -0.00117883 0)
(0.997877 9.0862e-05 0)
(0.997955 -0.000845444 0)
(0.997732 -0.000158036 0)
(0.99773 -0.000529397 0)
(0.997482 -0.000295004 0)
(0.997357 -0.000222399 0)
(0.997053 -0.000251809 0)
(0.996779 9.02879e-05 0)
(0.996344 9.64829e-06 0)
(0.995913 0.000531414 0)
(0.995299 0.000696148 0)
(0.994767 0.00155407 0)
(0.994251 0.00242523 0)
(0.994516 0.00403694 0)
(0.995187 0.00649725 0)
(1.00002 -0.00421844 0)
(0.997945 0.00337631 0)
(0.998139 -0.00395929 0)
(0.997498 0.00259791 0)
(0.998242 -0.00313515 0)
(0.998025 0.00219357 0)
(0.998416 -0.00264128 0)
(0.998156 0.00163174 0)
(0.998496 -0.00225828 0)
(0.998082 0.0010238 0)
(0.998268 -0.0018782 0)
(0.998012 0.000592111 0)
(0.998137 -0.00143025 0)
(0.997912 0.000259402 0)
(0.998004 -0.00105381 0)
(0.997857 -1.50863e-05 0)
(0.997885 -0.000740496 0)
(0.997707 -0.000228431 0)
(0.99765 -0.000457605 0)
(0.997449 -0.000312687 0)
(0.997268 -0.00018124 0)
(0.997017 -0.000231308 0)
(0.996689 0.000141581 0)
(0.996326 2.27584e-05 0)
(0.995838 0.000783516 0)
(0.99533 0.000636642 0)
(0.994765 0.00213084 0)
(0.994372 0.0023237 0)
(0.994323 0.00466196 0)
(0.995644 0.00292859 0)
(1.00004 -0.00410946 0)
(0.997936 0.00325049 0)
(0.998152 -0.00381796 0)
(0.997506 0.00247905 0)
(0.998247 -0.00300584 0)
(0.998019 0.0020518 0)
(0.99841 -0.00250567 0)
(0.99815 0.00148807 0)
(0.998486 -0.00211184 0)
(0.998076 0.000880981 0)
(0.998261 -0.00172633 0)
(0.998007 0.000449928 0)
(0.998133 -0.00128572 0)
(0.997905 0.000128921 0)
(0.998002 -0.000929517 0)
(0.997844 -0.000117483 0)
(0.997883 -0.00065199 0)
(0.997686 -0.000284097 0)
(0.997648 -0.00040909 0)
(0.99742 -0.000309562 0)
(0.997272 -0.000177919 0)
(0.996983 -0.000148837 0)
(0.996701 0.000101966 0)
(0.99631 0.0002519 0)
(0.995879 0.00060641 0)
(0.995371 0.00109603 0)
(0.994895 0.00186894 0)
(0.994527 0.00312457 0)
(0.994496 0.0048659 0)
(0.996311 0.00722943 0)
(1.00003 -0.00399358 0)
(0.997951 0.00311217 0)
(0.99815 -0.00366365 0)
(0.997534 0.00235034 0)
(0.998247 -0.00286617 0)
(0.998037 0.00190228 0)
(0.998403 -0.0023636 0)
(0.998167 0.00134036 0)
(0.998475 -0.00196395 0)
(0.998092 0.000742343 0)
(0.998253 -0.00158374 0)
(0.998027 0.000324478 0)
(0.998129 -0.0011641 0)
(0.997926 3.05646e-05 0)
(0.998 -0.000846909 0)
(0.997863 -0.000170269 0)
(0.99788 -0.00062473 0)
(0.997702 -0.000268833 0)
(0.997647 -0.000446004 0)
(0.997433 -0.000214122 0)
(0.997277 -0.000271136 0)
(0.996999 1.9595e-05 0)
(0.996726 -7.57354e-05 0)
(0.996336 0.000616991 0)
(0.995942 0.000351348 0)
(0.995456 0.00169944 0)
(0.995063 0.00150741 0)
(0.994799 0.0039719 0)
(0.995006 0.00494782 0)
(0.996539 0.0117772 0)
(1.00002 -0.00386895 0)
(0.997984 0.00295783 0)
(0.998138 -0.00349276 0)
(0.99758 0.00220637 0)
(0.998239 -0.0027091 0)
(0.998074 0.00173505 0)
(0.99839 -0.00220415 0)
(0.998204 0.00117635 0)
(0.998459 -0.00180023 0)
(0.998129 0.000589574 0)
(0.99824 -0.00142605 0)
(0.998068 0.00018599 0)
(0.998121 -0.00102456 0)
(0.997966 -8.26923e-05 0)
(0.997998 -0.000737476 0)
(0.9979 -0.000244281 0)
(0.997882 -0.000554436 0)
(0.997732 -0.000295252 0)
(0.997655 -0.000398562 0)
(0.99746 -0.000224364 0)
(0.997294 -0.000196245 0)
(0.997023 -6.98869e-06 0)
(0.996774 0.000127758 0)
(0.996381 0.000460562 0)
(0.996034 0.000796643 0)
(0.995557 0.00149049 0)
(0.995262 0.00229281 0)
(0.995114 0.00356802 0)
(0.995882 0.00501673 0)
(0.996973 0.00702853 0)
(1 -0.00373706 0)
(0.998019 0.00279003 0)
(0.99813 -0.00330837 0)
(0.997628 0.00204968 0)
(0.998237 -0.00253973 0)
(0.998118 0.00155599 0)
(0.998382 -0.00203708 0)
(0.99825 0.00100288 0)
(0.998447 -0.00163232 0)
(0.998177 0.000432658 0)
(0.998229 -0.00127284 0)
(0.998122 4.63412e-05 0)
(0.998113 -0.000924551 0)
(0.998022 -0.00017712 0)
(0.997992 -0.000681614 0)
(0.997955 -0.000286485 0)
(0.997877 -0.000537708 0)
(0.997789 -0.000293062 0)
(0.997649 -0.00038606 0)
(0.997521 -0.000211252 0)
(0.997293 -0.000157258 0)
(0.997103 -2.37433e-05 0)
(0.996779 0.000298679 0)
(0.996493 0.000323829 0)
(0.99609 0.00118683 0)
(0.995755 0.00133284 0)
(0.995407 0.00301148 0)
(0.995333 0.00335944 0)
(0.995634 0.00519034 0)
(0.997514 0.00281128 0)
(0.999999 -0.00360262 0)
(0.998042 0.00261575 0)
(0.998138 -0.00311734 0)
(0.997659 0.00189673 0)
(0.998255 -0.00237452 0)
(0.998141 0.00139344 0)
(0.9984 -0.0018867 0)
(0.99827 0.000861921 0)
(0.998466 -0.00149962 0)
(0.998192 0.000329504 0)
(0.998254 -0.0011651 0)
(0.998135 -1.86741e-05 0)
(0.998149 -0.000847053 0)
(0.998033 -0.000193349 0)
(0.998037 -0.000664409 0)
(0.99796 -0.000250626 0)
(0.997928 -0.000561606 0)
(0.997791 -0.000213757 0)
(0.997706 -0.00044093 0)
(0.997525 -7.57754e-05 0)
(0.997356 -0.000223629 0)
(0.997121 0.000168608 0)
(0.99686 0.000134765 0)
(0.996553 0.000693881 0)
(0.996228 0.000958655 0)
(0.995903 0.00187085 0)
(0.99565 0.00271356 0)
(0.995562 0.0043103 0)
(0.995819 0.00583552 0)
(0.998319 0.00774443 0)
(0.999993 -0.00344158 0)
(0.998071 0.00239672 0)
(0.998143 -0.00288104 0)
(0.997694 0.00168496 0)
(0.998266 -0.00214636 0)
(0.998169 0.00114751 0)
(0.998409 -0.00165432 0)
(0.998296 0.000619355 0)
(0.998474 -0.00126861 0)
(0.998218 0.000101149 0)
(0.998267 -0.000964601 0)
(0.998165 -0.000207174 0)
(0.998168 -0.000680579 0)
(0.998059 -0.00033977 0)
(0.998062 -0.000553886 0)
(0.997985 -0.000336213 0)
(0.997957 -0.000513416 0)
(0.997818 -0.000234904 0)
(0.99774 -0.000468187 0)
(0.997559 -1.56492e-05 0)
(0.9974 -0.000352374 0)
(0.997162 0.000438484 0)
(0.996931 -9.84815e-05 0)
(0.996631 0.00125666 0)
(0.996358 0.000602375 0)
(0.996071 0.00261167 0)
(0.995926 0.00219506 0)
(0.995952 0.0053575 0)
(0.996402 0.00628672 0)
(0.998224 0.0130325 0)
(0.999976 -0.00331364 0)
(0.998121 0.00222716 0)
(0.998135 -0.00269613 0)
(0.997751 0.00155571 0)
(0.998261 -0.00200862 0)
(0.998221 0.00103198 0)
(0.998402 -0.00156818 0)
(0.998348 0.0005627 0)
(0.998465 -0.0012359 0)
(0.998267 0.000121143 0)
(0.998265 -0.00101605 0)
(0.998213 -0.000104781 0)
(0.998176 -0.000848241 0)
(0.998102 -0.000148075 0)
(0.998079 -0.000782636 0)
(0.998023 -0.000104964 0)
(0.997982 -0.000738548 0)
(0.997852 -2.56204e-05 0)
(0.997776 -0.000634479 0)
(0.997591 0.000105378 0)
(0.997462 -0.000394281 0)
(0.997204 0.000441417 0)
(0.997032 0.000118295 0)
(0.99671 0.00109198 0)
(0.996512 0.00108159 0)
(0.996231 0.00241755 0)
(0.996229 0.00304941 0)
(0.996427 0.00480818 0)
(0.997496 0.00582425 0)
(0.998508 0.0071226 0)
(0.999963 -0.00311571 0)
(0.998175 0.00194639 0)
(0.998133 -0.00239849 0)
(0.997812 0.00128228 0)
(0.998262 -0.00171612 0)
(0.998279 0.000726303 0)
(0.9984 -0.00127183 0)
(0.998408 0.000255005 0)
(0.99846 -0.000918709 0)
(0.998326 -0.000167552 0)
(0.998264 -0.000675449 0)
(0.998274 -0.000409347 0)
(0.99818 -0.000473224 0)
(0.998163 -0.00049459 0)
(0.998084 -0.000330554 0)
(0.99809 -0.000546367 0)
(0.997983 -0.000156926 0)
(0.997928 -0.000593997 0)
(0.997773 0.000135355 0)
(0.997688 -0.000603498 0)
(0.997463 0.000555764 0)
(0.997332 -0.000482692 0)
(0.997051 0.00122972 0)
(0.996884 -2.14557e-05 0)
(0.996615 0.00237607 0)
(0.996529 0.00128696 0)
(0.996426 0.00451963 0)
(0.996606 0.00359484 0)
(0.996915 0.00654518 0)
(0.999003 0.00257867 0)
(0.999971 -0.0029834 0)
(0.998207 0.00176299 0)
(0.998161 -0.00220507 0)
(0.997843 0.00115145 0)
(0.998295 -0.00158079 0)
(0.998303 0.00061605 0)
(0.998437 -0.00120767 0)
(0.998427 0.000218977 0)
(0.998502 -0.000966631 0)
(0.99834 -7.92815e-05 0)
(0.998315 -0.000869703 0)
(0.998285 -0.000170368 0)
(0.998239 -0.000827291 0)
(0.998172 -0.000107175 0)
(0.998147 -0.00085334 0)
(0.998098 9.93349e-06 0)
(0.99805 -0.00088107 0)
(0.997945 0.000191405 0)
(0.997846 -0.00087007 0)
(0.997708 0.000569985 0)
(0.997547 -0.000765456 0)
(0.997371 0.00113671 0)
(0.997171 -0.000452062 0)
(0.996978 0.00209896 0)
(0.996811 0.000424267 0)
(0.996725 0.00357674 0)
(0.996759 0.00204577 0)
(0.99695 0.0062665 0)
(0.997326 0.00611998 0)
(0.999212 0.0136327 0)
(0.999966 -0.00278164 0)
(0.998265 0.00148126 0)
(0.998173 -0.00190913 0)
(0.9979 0.00090126 0)
(0.998305 -0.00131355 0)
(0.998357 0.000367977 0)
(0.998449 -0.000980407 0)
(0.998477 5.52241e-06 0)
(0.998516 -0.000783612 0)
(0.998385 -0.000237167 0)
(0.998337 -0.000732286 0)
(0.998327 -0.000294395 0)
(0.998271 -0.000689662 0)
(0.998209 -0.000260219 0)
(0.998186 -0.000656308 0)
(0.998133 -0.000239783 0)
(0.998099 -0.000577222 0)
(0.997972 -0.000211962 0)
(0.997922 -0.000424038 0)
(0.997741 -4.26505e-05 0)
(0.997652 -6.88528e-05 0)
(0.997417 0.000423241 0)
(0.997325 0.000512028 0)
(0.997074 0.00123276 0)
(0.997012 0.00160274 0)
(0.996888 0.00270146 0)
(0.997126 0.00348325 0)
(0.997578 0.00485726 0)
(0.998812 0.00583879 0)
(0.999417 0.00723369 0)
(0.999973 -0.00263142 0)
(0.998323 0.00125881 0)
(0.998199 -0.00168272 0)
(0.997959 0.000736812 0)
(0.998325 -0.00114117 0)
(0.998414 0.00022599 0)
(0.998468 -0.00084183 0)
(0.998536 -8.72628e-05 0)
(0.998534 -0.000668713 0)
(0.998444 -0.00029182 0)
(0.998357 -0.000620121 0)
(0.998393 -0.000369938 0)
(0.998287 -0.000519008 0)
(0.998283 -0.000402405 0)
(0.998192 -0.000348878 0)
(0.998218 -0.0004913 0)
(0.998095 -7.88016e-05 0)
(0.998078 -0.00062099 0)
(0.997909 0.000343795 0)
(0.997875 -0.000735373 0)
(0.997661 0.000937497 0)
(0.997582 -0.000661681 0)
(0.997359 0.00180397 0)
(0.997296 -0.00018979 0)
(0.997157 0.00313248 0)
(0.997233 0.0012536 0)
(0.997299 0.00540676 0)
(0.997593 0.0033987 0)
(0.997947 0.00652903 0)
(0.999927 0.00096749 0)
(1.00003 -0.00239635 0)
(0.998328 0.000936916 0)
(0.998287 -0.00136946 0)
(0.997951 0.000466019 0)
(0.998412 -0.000877125 0)
(0.9984 -2.94655e-05 0)
(0.998562 -0.000675576 0)
(0.998516 -0.000240085 0)
(0.998631 -0.000609861 0)
(0.99842 -0.000309613 0)
(0.998459 -0.00070954 0)
(0.998373 -0.000234289 0)
(0.998394 -0.000820737 0)
(0.998268 -5.45075e-05 0)
(0.998298 -0.000978855 0)
(0.998213 0.000195907 0)
(0.998198 -0.00111188 0)
(0.998086 0.000519367 0)
(0.998014 -0.00113685 0)
(0.997899 0.000940561 0)
(0.997763 -0.000992149 0)
(0.997646 0.00149528 0)
(0.997501 -0.000474167 0)
(0.997427 0.00235135 0)
(0.997396 0.000534693 0)
(0.997497 0.00376864 0)
(0.997703 0.0025272 0)
(0.997965 0.00692486 0)
(0.998251 0.00738223 0)
(1.00004 0.0135739 0)
(1.00005 -0.00229897 0)
(0.998382 0.000801854 0)
(0.998333 -0.00123334 0)
(0.997991 0.000414262 0)
(0.998453 -0.000817622 0)
(0.998429 -4.46462e-05 0)
(0.998614 -0.000714538 0)
(0.998541 -0.00020087 0)
(0.99869 -0.000693864 0)
(0.998435 -0.000229851 0)
(0.998528 -0.000792159 0)
(0.998382 -0.000163003 0)
(0.998473 -0.000873807 0)
(0.998265 -6.65391e-06 0)
(0.998392 -0.00100019 0)
(0.9982 0.000246068 0)
(0.998311 -0.00112758 0)
(0.998073 0.000589316 0)
(0.998148 -0.00117461 0)
(0.997897 0.00107485 0)
(0.997934 -0.00104127 0)
(0.997679 0.00177492 0)
(0.997701 -0.000579312 0)
(0.997511 0.00274294 0)
(0.997641 0.000345071 0)
(0.997713 0.00400234 0)
(0.998254 0.00195095 0)
(0.998912 0.00663317 0)
(0.999938 0.00671209 0)
(0.999467 0.0135236 0)
(1.00001 -0.00202225 0)
(0.998509 0.000408411 0)
(0.99833 -0.00081729 0)
(0.998099 9.10874e-05 0)
(0.998444 -0.000400211 0)
(0.998528 -0.000381071 0)
(0.998613 -0.000310445 0)
(0.998639 -0.000572473 0)
(0.99869 -0.000222548 0)
(0.998531 -0.000727031 0)
(0.99853 -0.000150594 0)
(0.998484 -0.000867327 0)
(0.99848 1.0022e-05 0)
(0.998371 -0.000976891 0)
(0.998403 0.000222143 0)
(0.99831 -0.00111216 0)
(0.998326 0.000505955 0)
(0.998186 -0.00116674 0)
(0.998177 0.000850229 0)
(0.99802 -0.00105526 0)
(0.997983 0.00129771 0)
(0.997824 -0.000683127 0)
(0.997802 0.00197105 0)
(0.997707 0.00011288 0)
(0.997798 0.00306523 0)
(0.99796 0.00124559 0)
(0.99851 0.00413141 0)
(0.999332 0.00170338 0)
(1.00041 0.00352679 0)
(0.999956 0.000141266 0)
(0.999989 -0.00188939 0)
(0.998629 0.000229335 0)
(0.998359 -0.000786662 0)
(0.998192 6.61873e-05 0)
(0.998464 -0.000554572 0)
(0.998607 -0.000226403 0)
(0.998645 -0.000592541 0)
(0.998719 -0.000320131 0)
(0.998721 -0.000569842 0)
(0.998611 -0.000406757 0)
(0.99856 -0.000533092 0)
(0.99857 -0.000499641 0)
(0.998508 -0.000405883 0)
(0.998463 -0.000590891 0)
(0.998423 -0.000236839 0)
(0.998414 -0.000728191 0)
(0.998351 2.81907e-05 0)
(0.998304 -0.000761131 0)
(0.998216 0.000396867 0)
(0.998155 -0.000615517 0)
(0.998056 0.000901661 0)
(0.997993 -0.00014368 0)
(0.997927 0.00166888 0)
(0.997936 0.000736748 0)
(0.997971 0.00274918 0)
(0.998154 0.00186339 0)
(0.998422 0.00348587 0)
(0.998875 0.00158435 0)
(0.99948 0.00191247 0)
(1.00168 0.000179702 0)
(1.00001 -0.00173418 0)
(0.998701 2.32231e-05 0)
(0.998436 -0.000592095 0)
(0.998232 -5.07457e-05 0)
(0.99854 -0.000186639 0)
(0.998639 -0.000481115 0)
(0.998726 -0.000278815 0)
(0.998754 -0.000585447 0)
(0.998803 -0.000283168 0)
(0.998647 -0.000652411 0)
(0.998642 -0.000279517 0)
(0.998613 -0.000671371 0)
(0.99859 -0.000238588 0)
(0.998509 -0.000624305 0)
(0.998503 -0.000200447 0)
(0.998468 -0.000553078 0)
(0.998437 -0.000129835 0)
(0.998371 -0.000415165 0)
(0.998316 4.69351e-05 0)
(0.998244 -0.000116463 0)
(0.998189 0.000433467 0)
(0.998121 0.000447902 0)
(0.99811 0.00114761 0)
(0.998102 0.00130494 0)
(0.998188 0.00206693 0)
(0.998292 0.00240563 0)
(0.998526 0.00322565 0)
(0.999006 0.0038785 0)
(1.00014 0.00492391 0)
(1.00391 0.00614083 0)
(1.00001 -0.00143126 0)
(0.998817 -0.000322697 0)
(0.998501 -0.000361044 0)
(0.998328 -0.000187821 0)
(0.998571 -0.000161376 0)
(0.998703 -0.000381167 0)
(0.99878 -0.000430909 0)
(0.998824 -0.000368207 0)
(0.998859 -0.000613487 0)
(0.998717 -0.000261799 0)
(0.998702 -0.000783368 0)
(0.998683 -8.40274e-05 0)
(0.998658 -0.000944922 0)
(0.998577 0.000156604 0)
(0.998575 -0.00110207 0)
(0.998535 0.000410295 0)
(0.998515 -0.00116921 0)
(0.998447 0.000712424 0)
(0.998412 -0.00103884 0)
(0.998348 0.00113226 0)
(0.998314 -0.00061029 0)
(0.998273 0.00174596 0)
(0.998265 0.000137043 0)
(0.998292 0.00249222 0)
(0.998397 0.00101803 0)
(0.998612 0.00352561 0)
(0.999 0.00252346 0)
(0.999551 0.00638938 0)
(1.00035 0.00744426 0)
(1.003 0.012472 0)
(0.99999 -0.00155407 0)
(0.998933 -0.000205887 0)
(0.998562 -0.000636887 0)
(0.998395 0.000117709 0)
(0.998638 -0.000373854 0)
(0.998761 -0.000163635 0)
(0.998845 -0.000583457 0)
(0.998879 -0.000272977 0)
(0.998938 -0.000672933 0)
(0.998768 -0.000297519 0)
(0.998792 -0.000708594 0)
(0.998728 -0.000277323 0)
(0.998756 -0.000716679 0)
(0.998616 -0.000221179 0)
(0.99868 -0.000708864 0)
(0.998583 -0.000162656 0)
(0.998634 -0.000614327 0)
(0.998518 1.51707e-05 0)
(0.998549 -0.00032599 0)
(0.998454 0.000403501 0)
(0.998479 0.000231217 0)
(0.998414 0.00104657 0)
(0.998452 0.00102471 0)
(0.99845 0.00192164 0)
(0.998635 0.00203253 0)
(0.998852 0.00295295 0)
(0.999599 0.0031104 0)
(1.00077 0.00386221 0)
(1.0024 0.00397199 0)
(1.00306 0.00511748 0)
(0.99996 -0.000921471 0)
(0.999093 -0.000891351 0)
(0.998619 -5.37738e-05 0)
(0.998552 -0.000474934 0)
(0.998633 0.000329431 0)
(0.998879 -0.000841215 0)
(0.99886 0.000169331 0)
(0.999008 -0.00108462 0)
(0.998951 0.000212472 0)
(0.998903 -0.00123792 0)
(0.998804 0.000352971 0)
(0.998868 -0.00135727 0)
(0.998769 0.000518911 0)
(0.998761 -0.00141934 0)
(0.998692 0.000686651 0)
(0.99873 -0.00145737 0)
(0.99866 0.000879467 0)
(0.998679 -0.00132511 0)
(0.99861 0.00116236 0)
(0.998641 -0.000959751 0)
(0.998586 0.0016215 0)
(0.998636 -0.000285081 0)
(0.998623 0.00241432 0)
(0.998733 0.000797196 0)
(0.998832 0.0035225 0)
(0.999099 0.00185661 0)
(0.999416 0.00416062 0)
(0.999948 0.00134678 0)
(1.00088 0.00213245 0)
(1.00423 -0.000433583 0)
(0.999995 -0.00145811 0)
(0.999153 -0.000190127 0)
(0.998752 -0.000883794 0)
(0.998577 0.000478735 0)
(0.998751 -0.000758746 0)
(0.998891 0.000419773 0)
(0.998965 -0.00107882 0)
(0.999034 0.000270012 0)
(0.999063 -0.00120067 0)
(0.998939 0.000220374 0)
(0.998916 -0.00117037 0)
(0.99891 0.000220836 0)
(0.998884 -0.00109315 0)
(0.998806 0.000285665 0)
(0.998807 -0.00101372 0)
(0.998786 0.000356569 0)
(0.99879 -0.00086817 0)
(0.998748 0.000526108 0)
(0.998756 -0.000565452 0)
(0.998735 0.000884678 0)
(0.998769 -3.36123e-05 0)
(0.998798 0.00153086 0)
(0.998872 0.000849535 0)
(0.998952 0.0025304 0)
(0.999079 0.00202692 0)
(0.999237 0.00363847 0)
(0.999532 0.0030493 0)
(1.00024 0.00444012 0)
(1.00196 0.00448099 0)
(1.00637 0.00769511 0)
(1.00001 -0.000540088 0)
(0.99925 -0.00129376 0)
(0.998874 -6.47139e-06 0)
(0.998671 -0.000554834 0)
(0.998818 0.000524626 0)
(0.99895 -0.000792632 0)
(0.999034 0.000329855 0)
(0.9991 -0.00104649 0)
(0.999134 0.000202484 0)
(0.999016 -0.00112787 0)
(0.998993 0.000235346 0)
(0.998992 -0.00111497 0)
(0.998969 0.000291331 0)
(0.998888 -0.00102889 0)
(0.998893 0.000332917 0)
(0.998873 -0.000924951 0)
(0.998882 0.00044294 0)
(0.998861 -0.000705221 0)
(0.998879 0.000714732 0)
(0.998889 -0.000279956 0)
(0.998939 0.00125268 0)
(0.998996 0.00043813 0)
(0.999096 0.00203516 0)
(0.999213 0.00142627 0)
(0.999373 0.00314486 0)
(0.999572 0.00294957 0)
(0.999891 0.00505538 0)
(1.00062 0.0052916 0)
(1.00238 0.00683259 0)
(1.00686 0.00524443 0)
(1.00001 -0.00112167 0)
(0.999359 -0.000199876 0)
(0.998997 -0.00112652 0)
(0.998785 0.000586093 0)
(0.998892 -0.000915065 0)
(0.999023 0.000811197 0)
(0.999099 -0.00138903 0)
(0.999173 0.000673588 0)
(0.999216 -0.00171981 0)
(0.999101 0.000691647 0)
(0.999078 -0.00174053 0)
(0.999078 0.000757373 0)
(0.999056 -0.00165796 0)
(0.998974 0.000830013 0)
(0.998982 -0.00151275 0)
(0.998971 0.00088959 0)
(0.99899 -0.00122568 0)
(0.998974 0.00109179 0)
(0.999009 -0.000816329 0)
(0.99904 0.00142585 0)
(0.999112 -0.000226865 0)
(0.999193 0.00203379 0)
(0.999317 0.000632113 0)
(0.999481 0.00293578 0)
(0.999742 0.0017405 0)
(1.0001 0.00430439 0)
(1.00057 0.00402234 0)
(1.00112 0.00823612 0)
(1.00203 0.00964116 0)
(1.00532 0.0137552 0)
(0.999937 -0.000604429 0)
(0.999445 -0.00100257 0)
(0.999027 -0.000372339 0)
(0.998881 -0.000320395 0)
(0.998928 0.000116374 0)
(0.999069 -0.000266938 0)
(0.999111 -0.00018787 0)
(0.999222 -0.000535919 0)
(0.999242 -0.000450893 0)
(0.999174 -0.000590142 0)
(0.999119 -0.000429651 0)
(0.999161 -0.000537257 0)
(0.999106 -0.000357837 0)
(0.999066 -0.000429457 0)
(0.999036 -0.000256409 0)
(0.999081 -0.000299528 0)
(0.999064 -2.69303e-05 0)
(0.999102 -3.08182e-05 0)
(0.999105 0.000348016 0)
(0.999187 0.000409259 0)
(0.999256 0.000886801 0)
(0.99939 0.00107137 0)
(0.999532 0.00173685 0)
(0.999718 0.00216862 0)
(1.00001 0.00296929 0)
(1.00057 0.003307 0)
(1.00163 0.00385461 0)
(1.00312 0.00393361 0)
(1.00493 0.00424584 0)
(1.00463 0.00366431 0)
(0.999854 -0.000511808 0)
(0.999704 -0.000854478 0)
(0.99909 -0.000495544 0)
(0.999147 -0.000242765 0)
(0.998922 -3.79814e-05 0)
(0.999278 -0.000177895 0)
(0.999097 -0.000258373 0)
(0.999419 -0.000427305 0)
(0.999253 -0.000443457 0)
(0.999378 -0.000521538 0)
(0.999141 -0.000376493 0)
(0.999354 -0.00052323 0)
(0.999138 -0.000266676 0)
(0.999247 -0.000450968 0)
(0.999079 -0.000130138 0)
(0.999267 -0.000311022 0)
(0.999131 0.000117811 0)
(0.999306 -2.25794e-05 0)
(0.999211 0.000457847 0)
(0.999423 0.000461265 0)
(0.999401 0.000971907 0)
(0.999686 0.00106874 0)
(0.999783 0.00161484 0)
(1.00013 0.0017865 0)
(1.00027 0.00240645 0)
(1.00065 0.00276831 0)
(1.00089 0.0037626 0)
(1.00138 0.0043908 0)
(1.00181 0.00546694 0)
(1.00485 0.00597137 0)
(0.999926 -0.000859157 0)
(0.9996 -0.000337282 0)
(0.999226 -0.000913531 0)
(0.999086 0.000160575 0)
(0.999067 -0.00048189 0)
(0.99919 0.000346654 0)
(0.999208 -0.000744756 0)
(0.999344 4.47083e-05 0)
(0.999362 -0.00099996 0)
(0.999335 -6.41901e-05 0)
(0.999254 -0.000960348 0)
(0.999332 -2.45051e-05 0)
(0.999256 -0.00084691 0)
(0.999246 9.81322e-05 0)
(0.999203 -0.000670658 0)
(0.999291 0.000268255 0)