/*--------------------------------*- C++ -*----------------------------------*\
| =========                 |                                                 |
| \\      /  F ield         | OpenFOAM: The Open Source CFD Toolbox           |
|  \\    /   O peration     | Version:  v2006                                 |
|   \\  /    A nd           | Website:  www.openfoam.com                      |
|    \\/     M anipulation  |                                                 |
\*---------------------------------------------------------------------------*/
FoamFile
{
    version     2.0;
    format      ascii;
    class       volScalarField;
    location    "1.6";
    object      p;
}
// * * * * * * * * * * * * * * * * * * * * * * * * * * * * * * * * * * * * * //

dimensions      [0 2 -2 0 0 0 0];


internalField   nonuniform List<scalar> 
26400
(
3.88224e-08
0.00220978
0.00207422
0.00229733
0.00172161
0.00200231
0.00163698
0.00195803
0.00165887
0.0019761
0.00172202
0.00202869
0.00181602
0.00211658
0.00194123
0.0022497
0.0021237
0.00246141
0.00240018
0.00279587
0.00283118
0.00332689
0.00350422
0.00415869
0.00455851
0.00548786
0.00629234
0.00786053
0.0096025
0.0122354
3.95665e-07
0.00220984
0.00207468
0.00229735
0.00172227
0.00200232
0.00163777
0.00195799
0.00165977
0.00197597
0.00172307
0.00202846
0.00181726
0.00211617
0.00194272
0.002249
0.00212554
0.00246019
0.00240252
0.00279362
0.00283427
0.00332231
0.00350872
0.00414781
0.00456689
0.00545426
0.00631187
0.00771722
0.00959139
0.0115481
1.40493e-06
0.00221014
0.00207559
0.00229746
0.00172353
0.00200229
0.00163927
0.0019578
0.00166153
0.0019756
0.00172512
0.00202786
0.00181967
0.00211526
0.00194557
0.00224759
0.00212891
0.00245799
0.00240651
0.00279014
0.00283892
0.00331656
0.00351401
0.00413787
0.00457335
0.00543591
0.00630779
0.00763863
0.00947533
0.0108889
3.56266e-06
0.00221102
0.00207683
0.00229789
0.00172516
0.00200241
0.00164117
0.0019577
0.00166376
0.00197522
0.00172769
0.00202718
0.00182263
0.00211416
0.00194897
0.00224582
0.00213284
0.00245517
0.00241107
0.00278561
0.0028442
0.00330923
0.00351977
0.0041251
0.00457889
0.00540584
0.00630835
0.00751576
0.00924981
0.010336
7.35685e-06
0.00221235
0.00207841
0.00229851
0.00172709
0.00200256
0.00164339
0.00195753
0.00166633
0.00197469
0.0017306
0.00202622
0.0018259
0.00211261
0.00195266
0.0022434
0.00213705
0.00245143
0.00241592
0.00277982
0.00284967
0.00330026
0.00352534
0.00410989
0.00458178
0.0053781
0.00627634
0.00742505
0.00890153
0.00988788
1.29595e-05
0.00221378
0.0020803
0.00229903
0.00172927
0.00200246
0.00164579
0.00195702
0.00166909
0.00197373
0.00173371
0.00202471
0.0018294
0.00211038
0.00195663
0.00224012
0.0021416
0.00244664
0.00242112
0.00277281
0.00285522
0.00329021
0.0035305
0.00409713
0.00458055
0.00536501
0.00620966
0.00734884
0.00851933
0.00933672
2.02101e-05
0.00221504
0.00208246
0.00229922
0.00173162
0.00200191
0.00164831
0.00195602
0.00167202
0.00197221
0.00173704
0.00202257
0.0018332
0.00210739
0.00196102
0.00223591
0.00214671
0.0024407
0.00242695
0.00276446
0.0028612
0.00327834
0.00353581
0.00408035
0.00457903
0.00532289
0.00618365
0.00717821
0.00835974
0.00892431
2.87739e-05
0.00221601
0.00208484
0.00229901
0.00173416
0.00200086
0.00165099
0.00195448
0.00167516
0.00197014
0.00174069
0.00201982
0.00183744
0.00210368
0.00196597
0.00223081
0.00215249
0.00243369
0.00243343
0.00275493
0.00286752
0.00326436
0.00354033
0.00406267
0.00457583
0.00528589
0.00612982
0.00701466
0.00803805
0.00848061
3.83123e-05
0.00221669
0.00208748
0.00229843
0.00173696
0.00199932
0.0016539
0.00195244
0.00167866
0.00196754
0.00174479
0.00201648
0.00184224
0.00209927
0.0019716
0.00222486
0.00215894
0.00242576
0.00244033
0.00274475
0.00287389
0.003252
0.00354205
0.00404772
0.00455552
0.00528399
0.00600843
0.00691501
0.00739669
0.00799091
4.85812e-05
0.00221716
0.00209039
0.00229756
0.00174012
0.00199735
0.00165715
0.0019499
0.00168261
0.00196438
0.00174949
0.00201246
0.00184776
0.00209402
0.00197802
0.0022179
0.00216618
0.00241665
0.00244781
0.00273239
0.00288085
0.00323671
0.00354412
0.00402699
0.00454601
0.00524043
0.00593715
0.00678472
0.00707821
0.00744567
5.94528e-05
0.00221747
0.00209363
0.00229645
0.00174373
0.00199496
0.00166083
0.00194684
0.00168711
0.00196061
0.00175485
0.00200772
0.00185403
0.00208791
0.00198522
0.00220998
0.00217403
0.0024066
0.00245554
0.00271974
0.0028871
0.00322093
0.00354498
0.00400304
0.00453476
0.00517
0.00590553
0.00661938
0.00716185
0.00682466
7.08943e-05
0.00221761
0.00209723
0.00229513
0.00174789
0.00199213
0.001665
0.0019432
0.00169224
0.00195616
0.00176095
0.00200217
0.0018611
0.00208087
0.00199318
0.00220108
0.0021824
0.0023956
0.00246336
0.00270681
0.00289183
0.00320541
0.00354279
0.00397888
0.00451423
0.00511465
0.00583776
0.00644618
0.00700327
0.00608503
8.29362e-05
0.00221756
0.00210123
0.00229359
0.00175267
0.00198882
0.00166973
0.00193891
0.00169805
0.00195095
0.00176784
0.00199577
0.00186898
0.00207293
0.00200179
0.00219136
0.00219104
0.00238387
0.0024707
0.00269386
0.00289451
0.00319037
0.00353701
0.00395785
0.00448161
0.00507052
0.00572822
0.00626432
0.00654318
0.00567003
9.56531e-05
0.0022172
0.00210567
0.0022918
0.00175818
0.00198497
0.00167508
0.00193389
0.00170459
0.00194493
0.00177554
0.0019885
0.00187758
0.00206421
0.00201084
0.00218113
0.00219956
0.00237262
0.00247666
0.00268177
0.00289421
0.00317616
0.00352177
0.00394262
0.004438
0.0050212
0.00560698
0.00607519
0.00585803
0.00508375
0.000109153
0.00221641
0.00211056
0.00228972
0.00176451
0.00198051
0.00168111
0.00192805
0.00171193
0.00193802
0.00178407
0.00198034
0.00188689
0.0020547
0.0020202
0.0021704
0.00220787
0.00236147
0.00248121
0.00267008
0.00289216
0.00316099
0.00351017
0.00390696
0.00440176
0.00493476
0.0054925
0.00590545
0.00593542
0.00468105
0.000123572
0.00221502
0.00211596
0.0022873
0.00177177
0.00197539
0.00168788
0.00192132
0.00172009
0.0019302
0.00179338
0.00197133
0.00189676
0.00204461
0.00202951
0.00215948
0.00221525
0.00235102
0.00248365
0.00265948
0.00288724
0.00314585
0.00349693
0.00386667
0.00435964
0.00483609
0.00536315
0.00569307
0.00576532
0.00394611
0.00013907
0.00221282
0.00212188
0.0022845
0.00178006
0.00196955
0.00169541
0.00191367
0.00172901
0.00192155
0.00180335
0.00196169
0.00190675
0.00203473
0.00203804
0.0021501
0.00222031
0.00234279
0.00248215
0.00265188
0.00287582
0.00313485
0.00346411
0.00384335
0.0042889
0.0047553
0.0051872
0.0054271
0.00524509
0.00370045
0.000155852
0.00220956
0.00212837
0.00228125
0.00178948
0.00196294
0.00170371
0.00190507
0.00173863
0.00191207
0.00181387
0.00195166
0.00191647
0.00202533
0.0020455
0.00214226
0.002223
0.00233647
0.00247782
0.00264541
0.00286193
0.00312512
0.00342779
0.00381081
0.00420928
0.00466423
0.00500529
0.00511882
0.00438462
0.00319552
0.000174142
0.00220495
0.00213543
0.0022775
0.00180011
0.00195553
0.00171278
0.00189548
0.00174892
0.00190176
0.00182476
0.0019414
0.00192563
0.00201564
0.00205152
0.00213519
0.00222397
0.00232982
0.00247358
0.00263476
0.00285159
0.00309915
0.00340581
0.00375113
0.00413769
0.00452299
0.00484182
0.00496189
0.00462863
0.00285042
0.000194128
0.00219872
0.00214305
0.00227328
0.00181198
0.00194742
0.00172245
0.00188521
0.00175945
0.00189141
0.00183512
0.00193384
0.00193404
0.00200892
0.0020554
0.00213007
0.00222263
0.0023242
0.00246717
0.00262389
0.00284146
0.00307256
0.00338067
0.00368206
0.00405404
0.00436612
0.00465513
0.00472422
0.00449649
0.00201937
0.000216275
0.00219042
0.00215129
0.00226844
0.00182528
0.00193843
0.00173284
0.00187392
0.00177034
0.0018803
0.00184499
0.00192135
0.00194221
0.00200187
0.00205793
0.00212574
0.00221901
0.00231967
0.00245613
0.00261392
0.00281879
0.00305549
0.00333267
0.00362996
0.00394634
0.0042243
0.0043988
0.0043604
0.00392611
0.00210687
0.000240579
0.00217979
0.00215998
0.00226319
0.00183979
0.00192909
0.00174333
0.00186273
0.00178058
0.00187142
0.00185319
0.00191778
0.00194502
0.00200119
0.00205382
0.00212893
0.00220827
0.00232468
0.00243675
0.00261729
0.00277881
0.00304159
0.00325695
0.00357568
0.00382141
0.00408795
0.00412861
0.00390651
0.00285516
0.00175271
0.000267742
0.00216628
0.00216919
0.00225735
0.00185573
0.00191921
0.00175402
0.00185097
0.00179037
0.00186196
0.0018617
0.00191062
0.00194921
0.00199561
0.00205641
0.00212036
0.00221139
0.002308
0.00244118
0.00258442
0.00277908
0.00297976
0.00323366
0.00346868
0.00371064
0.00385724
0.00392037
0.00379773
0.0034549
0.00148633
0.00029799
0.00214952
0.00217875
0.00225103
0.001873
0.00190899
0.00176463
0.00183861
0.00179872
0.00185204
0.00186811
0.00190494
0.0019521
0.0019907
0.00205698
0.00211336
0.00220848
0.00229495
0.00243227
0.00256764
0.00275769
0.00294416
0.00318184
0.00338031
0.00357949
0.00366555
0.0036533
0.00345645
0.00309427
0.00121968
0.000331404
0.00212929
0.0021883
0.00224465
0.00189104
0.0019
0.00177427
0.00183044
0.00180333
0.00185119
0.00186715
0.00190997
0.00194518
0.00199972
0.00204351
0.00212568
0.00218638
0.00231001
0.00238731
0.00257291
0.0026915
0.00293139
0.00306664
0.00331439
0.00341981
0.00353068
0.00332936
0.00285541
0.0016293
0.000934128
0.000368674
0.00210506
0.0021978
0.00223802
0.00190995
0.00189114
0.00178377
0.00182044
0.00180803
0.0018453
0.00187007
0.0019044
0.00194999
0.0019895
0.00205507
0.00210614
0.00220358
0.00227776
0.00240924
0.00251606
0.00268893
0.00284479
0.00303717
0.00317467
0.00327713
0.00326502
0.00315572
0.00292199
0.00253625
0.000676606
0.000410508
0.00207633
0.00220706
0.00223111
0.00192948
0.00188136
0.00179212
0.00181229
0.0018105
0.00184298
0.00187029
0.0019031
0.00194829
0.00198207
0.00205165
0.00209469
0.0021984
0.00225381
0.00240264
0.00248136
0.00268212
0.00277711
0.00298503
0.00304222
0.00312482
0.00300361
0.00283571
0.00255068
0.00228461
0.000491316
0.000455855
0.0020443
0.00221496
0.00222625
0.00194838
0.00187844
0.00179492
0.0018107
0.00180399
0.00185168
0.00185828
0.00192088
0.0019291
0.00201426
0.00201624
0.00213038
0.00214771
0.00229216
0.00233214
0.00250367
0.00257956
0.00276176
0.00285385
0.00297427
0.0029455
0.00280539
0.00234866
0.00161934
0.000631418
0.00100152
0.000505994
0.00200722
0.00222218
0.00222047
0.00197061
0.00187345
0.00180183
0.00180312
0.00180641
0.00184617
0.00186232
0.00191328
0.00193245
0.00199948
0.00201699
0.00211441
0.00214435
0.00227042
0.00231722
0.00247134
0.00254589
0.00270589
0.00277144
0.0028652
0.00281001
0.00264227
0.00211659
0.0012841
0.000211352
0.000652812
0.00056236
0.00196272
0.00222699
0.00221234
0.00198952
0.00187146
0.00180673
0.00179633
0.00180957
0.00183885
0.00187081
0.00190196
0.00194619
0.00198168
0.00203735
0.00208582
0.0021608
0.0022289
0.00232138
0.00241213
0.0025189
0.00261312
0.00269312
0.0027109
0.00268292
0.00252006
0.00225457
0.00182466
0.00123044
-0.000908309
0.000621827
0.00192716
0.00222438
0.00222001
0.00200441
0.00187426
0.00180776
0.00179185
0.0018088
0.00183449
0.00187328
0.00189591
0.00194974
0.0019719
0.0020409
0.00206817
0.00215829
0.0022003
0.00230339
0.0023631
0.00246839
0.00252832
0.00259179
0.00259055
0.00254618
0.00242698
0.00222839
0.00173411
0.000636225
-0.00311153
0.00068924
0.00187327
0.00222351
0.00219398
0.00203334
0.00187972
0.00181422
0.00178876
0.00180823
0.00183282
0.00186916
0.00189688
0.00194065
0.00197603
0.0020257
0.00207645
0.00213619
0.00219918
0.00226493
0.00233392
0.00240209
0.00245344
0.00249668
0.00248054
0.00239557
0.00218413
0.0018079
0.00125707
0.000459095
-0.00214925
0.000754776
0.00184183
0.00220417
0.0022196
0.00202762
0.00189802
0.00180283
0.00180363
0.00178807
0.0018508
0.0018443
0.00192036
0.00191135
0.00200081
0.00198837
0.00208795
0.00209286
0.00218737
0.0022072
0.00228774
0.00231693
0.00237336
0.00239213
0.0023826
0.002238
0.0020014
0.0012905
9.32973e-05
-0.00155951
-0.0022983
0.000834015
0.00179161
0.00219035
0.00218199
0.00206942
0.00189737
0.00182528
0.00178812
0.00180518
0.00183012
0.00186424
0.00189655
0.00193554
0.00197427
0.00201443
0.00205831
0.00210129
0.00214101
0.00218194
0.00221554
0.00225048
0.00226756
0.0022667
0.00221174
0.00208871
0.0018618
0.00152008
0.00103664
9.45181e-05
-0.00314968
0.000905137
0.0017645
0.00215836
0.00219798
0.00206782
0.00191516
0.00182749
0.0017906
0.00179935
0.00182556
0.0018584
0.00188987
0.00192779
0.00196295
0.00200027
0.00204101
0.00208013
0.00211868
0.00214581
0.00216154
0.00217269
0.00215267
0.00212166
0.0020426
0.00194323
0.0017742
0.00150203
0.000785176
-0.000904805
-0.00528405
0.000984588
0.00173329
0.00212131
0.00218261
0.00208449
0.00192786
0.00183967
0.00179424
0.00180388
0.00182217
0.00185655
0.00188393
0.00192228
0.00195893
0.00199456
0.002033
0.00206426
0.00208135
0.00209725
0.00209279
0.00208262
0.00203946
0.00197672
0.00186559
0.00172692
0.00152292
0.00121395
0.000474202
-0.00125739
-0.00568778
0.00107283
0.00171393
0.00208047
0.00215313
0.00209646
0.00193685
0.00185255
0.00179901
0.00180468
0.00181662
0.00184931
0.00187509
0.00191317
0.00194754
0.00198014
0.00201481
0.00203862
0.00205092
0.00205344
0.0020254
0.00199178
0.00192397
0.00183793
0.00168003
0.00143932
0.00107045
0.000615385
5.15075e-05
-0.000862005
-0.00411542
0.00111306
0.00173325
0.00203573
0.00217266
0.00206107
0.00198693
0.00184684
0.00183678
0.00178504
0.0018308
0.00182456
0.00187663
0.00189122
0.00193801
0.00195613
0.00198825
0.00200625
0.00201138
0.00200443
0.00196507
0.00189004
0.00180573
0.0016722
0.00152451
0.00122193
0.000686657
-0.000396453
-0.00189285
-0.00378246
-0.00351019
0.00123952
0.00168567
0.00200326
0.00210959
0.00209094
0.0019713
0.00188717
0.00183019
0.00180541
0.00181116
0.00183016
0.00185838
0.00189007
0.00192188
0.0019469
0.00196063
0.0019752
0.00196192
0.00194186
0.00188324
0.00180145
0.00166403
0.00147689
0.00125191
0.00102152
0.000744055
0.000412265
1.45181e-05
-0.000508757
-0.00340657
0.0012574
0.00173284
0.00196225
0.0021272
0.00205551
0.00201517
0.00187534
0.0018564
0.00179195
0.00181535
0.00181339
0.00184667
0.00186987
0.00189818
0.00192172
0.00193485
0.00194369
0.00192549
0.00187361
0.00181897
0.0017194
0.0016075
0.00144068
0.0012403
0.000842572
0.000102478
-0.00115594
-0.0027889
-0.00471105
-0.00410759
0.00138067
0.00168746
0.00194021
0.00206428
0.00207642
0.00199959
0.00192539
0.00186109
0.00181643
0.00180057
0.00181045
0.00182621
0.00185367
0.00187618
0.00189249
0.00189525
0.00189088
0.00186134
0.0018165
0.00174789
0.00165306
0.00152048
0.00133632
0.0010791
0.000762797
0.000423805
9.14842e-05
-0.000354823
-0.0015864
-0.00563033
0.0014499
0.00168876
0.00192196
0.00204106
0.00207025
0.00200199
0.00193806
0.00186015
0.00181991
0.00179618
0.00179771
0.00180873
0.0018306
0.0018589
0.00186681
0.00186167
0.00185241
0.00181094
0.00176667
0.00168118
0.00158112
0.0014258
0.00124313
0.00100969
0.000743619
0.000365666
-0.000233264
-0.00137763
-0.00361652
-0.00864368
0.00147548
0.00173228
0.00190756
0.00201411
0.00204313
0.00200898
0.00194977
0.00188482
0.00183649
0.00180879
0.00179329
0.00178826
0.00180261
0.00181204
0.00182077
0.00181631
0.00180383
0.00176578
0.0017097
0.00161989
0.00150316
0.00133632
0.0011295
0.000869844
0.000555338
0.000117704
-0.000572779
-0.00179782
-0.00413522
-0.00916041
0.00161668
0.00169048
0.00189183
0.00198447
0.00203045
0.00198988
0.00194651
0.00188501
0.00183698
0.00180512
0.0017839
0.00178114
0.00178031
0.00178745
0.00179319
0.00177514
0.001764
0.00171409
0.00165449
0.00155387
0.00143429
0.00124995
0.0010015
0.000638693
0.000185471
-0.000347318
-0.000921077
-0.00170107
-0.0032451
-0.00787881
0.00155394
0.00183286
0.00186704
0.00199957
0.00197266
0.00201685
0.00191544
0.00191497
0.00182299
0.00182075
0.00176321
0.00175645
0.00174034
0.00174478
0.00174797
0.00173769
0.00172805
0.00168107
0.00159196
0.0015021
0.00135307
0.0011888
0.000904915
0.000515716
-0.000211322
-0.00132232
-0.0028579
-0.00471524
-0.00678809
-0.00586176
0.00172331
0.00177305
0.00187457
0.00193875
0.00196985
0.00197265
0.00194872
0.00190181
0.00186061
0.00182049
0.00176784
0.00172282
0.0017024
0.00169307
0.00169229
0.00167736
0.00165866
0.00160984
0.00153746
0.0014328
0.00129437
0.00110051
0.000831828
0.000474766
5.13549e-05
-0.000424183
-0.00100687
-0.00195605
-0.00402536
-0.00926317
0.00173283
0.00179254
0.00189522
0.0019447
0.00196834
0.00195319
0.00193058
0.00188859
0.00184066
0.00179781
0.00175258
0.00172278
0.00168559
0.00166013
0.00164674
0.00161577
0.00160019
0.00154784
0.00148439
0.00137112
0.00123839
0.00104687
0.000815831
0.000497372
8.04618e-05
-0.000590826
-0.00165465
-0.00345806
-0.00652553
-0.0123888
0.00175934
0.00187211
0.00191169
0.00193336
0.00193954
0.00192384
0.00190899
0.00187998
0.00184924
0.00179737
0.00174549
0.00168767
0.00163466
0.00160999
0.00158608
0.00157072
0.00153961
0.00149702
0.00142028
0.00131697
0.00117564
0.000998223
0.000758991
0.000436216
-3.56944e-05
-0.000731304
-0.00180786
-0.00355516
-0.00667006
-0.012691
0.00185039
0.00188193
0.00190985
0.00191651
0.00191292
0.00190244
0.00188293
0.00186481
0.00183642
0.00179218
0.00172247
0.00165033
0.00159886
0.00156638
0.00154704
0.00152196
0.00148809
0.00143593
0.0013589
0.00125128
0.00111041
0.000927219
0.000681727
0.000340077
-0.000148348
-0.000869692
-0.00199313
-0.00386897
-0.00722196
-0.0135637
0.00186236
0.00191819
0.00194295
0.00193535
0.00191059
0.00188088
0.00185525
0.00183076
0.00179624
0.00175115
0.0016956
0.00163562
0.00158039
0.00153988
0.001507
0.00147311
0.00143001
0.00137207
0.00129064
0.00117996
0.00103468
0.000844444
0.000587289
0.000230143
-0.000280961
-0.00104397
-0.00225145
-0.00426258
-0.00777764
-0.0142665
0.00191872
0.00196145
0.00196323
0.00193634
0.00189678
0.00185513
0.00181918
0.00178863
0.00175335
0.00171297
0.00166677
0.00161405
0.00155856
0.00150978
0.00146593
0.00142193
0.00136989
0.00130479
0.00121771
0.00110204
0.000949989
0.000750362
0.000480341
0.000104399
-0.000438613
-0.00125525
-0.00253928
-0.00464318
-0.00825247
-0.0147913
0.00196148
0.00199094
0.00197853
0.00193959
0.00188728
0.00183408
0.00178886
0.00175297
0.00171653
0.00167702
0.00163357
0.00158474
0.00153014
0.00147597
0.00142384
0.0013701
0.00130885
0.00123514
0.00114085
0.00101824
0.000857777
0.000646673
0.000361074
-3.78986e-05
-0.000615026
-0.00147851
-0.00281907
-0.00498385
-0.00863772
-0.0151939
0.00200327
0.00202217
0.00199894
0.00194572
0.00187966
0.0018142
0.00175905
0.00171636
0.001677
0.00163722
0.00159515
0.00154863
0.00149497
0.00143807
0.00137934
0.00131702
0.00124637
0.00116314
0.00105998
0.000928434
0.000757608
0.000533026
0.000229557
-0.000193002
-0.000800158
-0.00169955
-0.00307948
-0.0052793
-0.00896103
-0.0155379
0.00204579
0.00205546
0.00201635
0.00194834
0.00186942
0.00179303
0.00172877
0.00167885
0.00163616
0.00159553
0.00155429
0.00150875
0.00145548
0.00139597
0.00133172
0.00126152
0.00118176
0.00108839
0.000975056
0.000832838
0.000650123
0.000410891
8.96433e-05
-0.000354239
-0.000985681
-0.00191159
-0.00331645
-0.00553518
-0.00922804
-0.0158112
0.00208557
0.00208472
0.00203379
0.00195164
0.00185949
0.00177196
0.00169881
0.00164251
0.00159627
0.00155376
0.00151163
0.00146596
0.00141212
0.0013499
0.00128036
0.00120275
0.00111409
0.00101048
0.000886123
0.00073218
0.000536689
0.000282967
-5.47452e-05
-0.000516793
-0.00116747
-0.00211245
-0.00353281
-0.00576352
-0.00946613
-0.0160606
0.00212319
0.00211337
0.00205066
0.0019553
0.00185007
0.00175095
0.00166854
0.00160536
0.00155518
0.00151045
0.00146696
0.00142008
0.00136486
0.00129962
0.00122501
0.0011403
0.00104293
0.000929147
0.000793338
0.00062714
0.00041883
0.000151389
-0.00020088
-0.00067812
-0.00134407
-0.00230247
-0.00373405
-0.00597373
-0.00968294
-0.0162854
0.00215828
0.00214115
0.0020669
0.00195944
0.0018414
0.00173001
0.00163759
0.00156702
0.00151265
0.00146552
0.00142021
0.00137139
0.00131412
0.00124552
0.00116575
0.001074
0.000968185
0.000844355
0.000697346
0.000519131
0.000298514
1.84258e-05
-0.00034659
-0.000836493
-0.00151394
-0.00248241
-0.00392297
-0.00617072
-0.00988578
-0.0164894
0.00218786
0.0021652
0.00208465
0.00196592
0.00183374
0.00170928
0.0016061
0.00152806
0.0014688
0.00141906
0.00137135
0.00132023
0.00126016
0.001188
0.00110277
0.0010041
0.000889824
0.000756465
0.000598765
0.000409338
0.000177132
-0.000114355
-0.000490519
-0.000990703
-0.00167689
-0.00265277
-0.00410018
-0.00635459
-0.0100779
-0.0166923
0.00221611
0.00218813
0.00210023
0.00197056
0.00182552
0.00168881
0.00157515
0.00148908
0.00142432
0.00137113
0.00132054
0.00126656
0.00120324
0.00112712
0.0010364
0.000930771
0.000808276
0.000665842
0.00049827
0.000298502
5.57591e-05
-0.000246004
-0.000631841
-0.0011401
-0.00183298
-0.00281429
-0.00426611
-0.00652427
-0.0102524
-0.0168753
0.00224482
0.00221092
0.00211175
0.00197137
0.00181602
0.00166867
0.00154508
0.00145026
0.00137932
0.00132172
0.00126786
0.0012104
0.00114355
0.00106308
0.000966999
0.000854443
0.000724129
0.000573043
0.000396471
0.000187264
-6.48819e-05
-0.000375777
-0.000769473
-0.00128426
-0.00198226
-0.00296755
-0.00442174
-0.00667984
-0.0104028
-0.0170159
0.00226946
0.00223024
0.0021232
0.00197268
0.00180653
0.00164854
0.001515
0.00141149
0.00133362
0.00127108
0.00121335
0.00115209
0.00108124
0.000996321
0.00089485
0.000775713
0.00063789
0.000478759
0.000293895
7.62963e-05
-0.000184188
-0.000502654
-0.000902762
-0.00142273
-0.00212464
-0.00311248
-0.00456768
-0.00682543
-0.0105485
-0.0171668
0.00229021
0.00224684
0.00213415
0.00197453
0.00179705
0.00162797
0.00148434
0.00137217
0.00128721
0.00121935
0.00115723
0.00109189
0.00101667
0.000927172
0.000820387
0.000695058
0.000550171
0.000383618
0.000191186
-3.38447e-05
-0.000301293
-0.000625894
-0.00103122
-0.00155526
-0.00226013
-0.00324978
-0.00470595
-0.00696424
-0.0106882
-0.0173076
0.00230984
0.0022627
0.00214249
0.00197405
0.00178661
0.00160693
0.00145331
0.00133236
0.00124026
0.00116668
0.0010999
0.0010301
0.000950353
0.000856067
0.000744142
0.000612952
0.000461583
0.000288203
8.90374e-05
-0.000142421
-0.00041556
-0.000745123
-0.00115455
-0.00168176
-0.00238882
-0.00337989
-0.00483699
-0.00709597
-0.01082
-0.0174383
0.00232641
0.00227565
0.00214942
0.0019727
0.00177547
0.00158547
0.00142202
0.00129237
0.00119296
0.00111344
0.00104164
0.000967168
0.000882688
0.000783562
0.000666591
0.000529942
0.000372644
0.000193136
-1.20337e-05
-0.000248807
-0.000526566
-0.000860047
-0.00127264
-0.00180218
-0.0025107
-0.00350252
-0.00495998
-0.00721926
-0.0109438
-0.0175618
0.00233997
0.00228599
0.00215471
0.00197034
0.00176357
0.00156354
0.00139053
0.00125235
0.00114553
0.00105985
0.000982735
0.00090342
0.000814107
0.000710155
0.00058827
0.000446554
0.000283894
9.89439e-05
-0.000111327
-0.000352518
-0.000634028
-0.000970564
-0.00138552
-0.0019166
-0.0026258
-0.00361743
-0.00507408
-0.00733242
-0.0110573
-0.0176799
0.00235231
0.00229501
0.00215748
0.00196538
0.00174994
0.00154082
0.00135893
0.00121243
0.00109818
0.0010061
0.000923532
0.000839226
0.000745097
0.000636357
0.000509769
0.000363334
0.000195908
6.22272e-06
-0.000208302
-0.000453164
-0.000737676
-0.00107657
-0.00149316
-0.0020251
-0.00273425
-0.00372489
-0.00517964
-0.00743533
-0.011157
-0.0177774
0.00236249
0.00230165
0.00215816
0.00195859
0.0017349
0.00151734
0.00132717
0.00117266
0.00105106
0.000952467
0.000864312
0.000774974
0.00067608
0.00056268
0.000431615
0.000280828
0.000109155
-8.44637e-05
-0.000302497
-0.000550355
-0.000837246
-0.00117788
-0.00159553
-0.00212777
-0.00283635
-0.00382551
-0.00527784
-0.00753044
-0.0112495
-0.0178705
0.00236992
0.00230605
0.00215729
0.0019509
0.00171939
0.00149356
0.00129519
0.00113288
0.00100409
0.000899086
0.000805331
0.000710987
0.000607437
0.000489578
0.000354297
0.000199527
2.42236e-05
-0.000172684
-0.000393613
-0.00064389
-0.000932629
-0.0012745
-0.00169273
-0.00222488
-0.00293269
-0.00392048
-0.00537098
-0.00762152
-0.0113383
-0.0179582
0.00237427
0.00230805
0.00215508
0.00194263
0.00170366
0.00146964
0.00126314
0.00109323
0.00095748
0.000846229
0.000746915
0.000647663
0.000539619
0.000417565
0.00027838
0.000120061
-5.83761e-05
-0.000258035
-0.000481355
-0.000733558
-0.00102371
-0.00136642
-0.00178492
-0.00231679
-0.00302384
-0.00401051
-0.00545986
-0.00770984
-0.011428
-0.018052
0.00237624
0.00230802
0.00215119
0.00193319
0.00168724
0.00144548
0.0012312
0.00105399
0.000911512
0.00079421
0.000689492
0.00058547
0.000473153
0.00034719
0.000204429
4.30365e-05
-0.000138076
-0.00034004
-0.000565317
-0.000819051
-0.00111027
-0.00145354
-0.00187216
-0.00240371
-0.00311013
-0.004096
-0.00554462
-0.00779419
-0.0115124
-0.0181368
0.00237704
0.00230652
0.00214549
0.00192199
0.00166969
0.00142101
0.00119959
0.00101544
0.000866519
0.000743385
0.000633471
0.000524873
0.000408532
0.000279005
0.000133124
-3.09579e-05
-0.000214364
-0.000418279
-0.000645156
-0.00090012
-0.00119214
-0.00153581
-0.00195442
-0.00248565
-0.00319149
-0.00417662
-0.00562444
-0.00787322
-0.0115906
-0.0182142
0.00237587
0.00230317
0.00213841
0.0019099
0.00165171
0.00139658
0.0011685
0.000977847
0.000822847
0.000694166
0.000579336
0.000466429
0.000346374
0.000213647
6.49938e-05
-0.000101478
-0.000286895
-0.000492471
-0.000720667
-0.000976604
-0.00126923
-0.00161313
-0.00203163
-0.00256242
-0.00326757
-0.00425179
-0.00569846
-0.00794591
-0.0116619
-0.0182852
0.00237309
0.00229851
0.00213035
0.00189728
0.00163362
0.00137247
0.00113819
0.00094148
0.000780815
0.000646969
0.000527557
0.00041067
0.000287207
0.000151574
4.27817e-07
-0.000168175
-0.000355361
-0.000562352
-0.000791622
-0.0010483
-0.00134133
-0.00168529
-0.00210351
-0.00263373
-0.00333801
-0.0043211
-0.00576646
-0.00801255
-0.0117275
-0.0183508
0.00236906
0.00229275
0.00212152
0.00188428
0.00161563
0.00134896
0.00110897
0.000906688
0.000740808
0.000602219
0.000478607
0.000358088
0.000231519
9.32477e-05
-6.0134e-05
-0.000230616
-0.000419334
-0.000627515
-0.000857644
-0.00111486
-0.00140812
-0.00175198
-0.0021698
-0.00269931
-0.00340263
-0.00438455
-0.00582867
-0.00807362
-0.0117879
-0.0184114
0.00236415
0.00228627
0.00211225
0.00187122
0.00159805
0.00132638
0.00108122
0.000873895
0.000703274
0.000560389
0.000432991
0.000309205
0.000179839
3.91957e-05
-0.00011617
-0.000288284
-0.000478307
-0.000687474
-0.000918282
-0.00117588
-0.00146922
-0.0018129
-0.00223025
-0.00275905
-0.00346145
-0.0044423
-0.0058853
-0.00812927
-0.011843
-0.0184668
0.00235873
0.00227947
0.00210293
0.00185849
0.00158126
0.00130513
0.00105538
0.000843562
0.000668714
0.000522009
0.000391262
0.000264578
0.000132731
-1.00147e-05
-0.000167123
-0.000340644
-0.000531773
-0.000741758
-0.000973108
-0.00123098
-0.00152434
-0.0018678
-0.00228473
-0.00281293
-0.00351456
-0.00449452
-0.00593657
-0.00817963
-0.0118927
-0.0185167
0.00235333
0.00227282
0.00209403
0.00184657
0.00156576
0.0012857
0.00103194
0.00081621
0.000637735
0.000487756
0.00035413
0.000224939
9.09212e-05
-5.3674e-05
-0.00021231
-0.000387058
-0.000579132
-0.000789808
-0.0010216
-0.00127968
-0.00157304
-0.00191632
-0.00233291
-0.00286066
-0.00356175
-0.00454112
-0.00598256
-0.00822502
-0.0119376
-0.0185615
0.00234819
0.0022667
0.00208607
0.00183606
0.00155214
0.00126866
0.00101145
0.000792473
0.00061102
0.000458405
0.000322462
0.000191229
5.54083e-05
-9.07329e-05
-0.000250658
-0.00042643
-0.000619291
-0.000830525
-0.00106267
-0.0013209
-0.00161424
-0.00195737
-0.00237371
-0.00290114
-0.00360189
-0.00458096
-0.00602219
-0.00826465
-0.0119775
-0.0186022
0.00234398
0.00226142
0.00207927
0.00182719
0.0015407
0.00125445
0.000994573
0.000773198
0.000589633
0.000435168
0.000297556
0.000164797
2.75922e-05
-0.00011975
-0.000280673
-0.000457231
-0.000650676
-0.000862301
-0.00109466
-0.00135294
-0.0016462
-0.00198914
-0.00240522
-0.00293236
-0.00363285
-0.00461173
-0.00605291
-0.00829551
-0.0120087
-0.0186338
0.00234253
0.00225923
0.00207437
0.00181871
0.0015288
0.00123987
0.000978088
0.000755199
0.000570222
0.000414274
0.000275082
0.000140677
1.86432e-06
-0.000146972
-0.000309214
-0.000486896
-0.000681258
-0.000893606
-0.00112649
-0.00138512
-0.00167854
-0.00202145
-0.00243731
-0.00296402
-0.00366387
-0.00464194
-0.00608226
-0.00832423
-0.0120378
-0.0186663
0.014272
0.0139753
0.0124884
0.0103183
0.00752397
0.00423518
0.000616768
-0.00296937
-0.00580507
-0.00724663
-0.0073113
-0.00655226
-0.00554317
-0.00461041
-0.00388194
-0.00337669
-0.00306005
-0.00288002
-0.00278788
-0.00274581
-0.00272768
-0.00271706
-0.00270481
-0.0026869
-0.0026625
-0.00263269
-0.00259933
-0.00256445
-0.00252978
-0.00249663
-0.00246576
-0.00243754
-0.00241202
-0.00238905
-0.00236844
-0.00234997
-0.00233348
-0.00231884
-0.00230593
-0.00229469
-0.00228501
-0.0022768
-0.00226995
-0.00226436
-0.00225991
-0.0022565
-0.00225405
-0.00225247
-0.00225172
-0.00225174
-0.0022525
-0.00225396
-0.00225612
-0.00225895
-0.00226242
-0.00226651
-0.0022712
-0.00227648
-0.00228232
-0.00228869
-0.00229558
-0.00230296
-0.00231082
-0.00231914
-0.0023279
-0.00233708
-0.00234667
-0.00235665
-0.00236701
-0.00237773
-0.0023888
-0.00240022
-0.00241196
-0.00242402
-0.0024364
-0.00244907
-0.00246203
-0.00247528
-0.0024888
-0.00250258
-0.00251663
-0.00253092
-0.00254546
-0.00256023
-0.00257524
-0.00259047
-0.00260592
-0.00262158
-0.00263746
-0.00265353
-0.00266981
-0.00268628
-0.00270295
-0.0027198
-0.00273683
-0.00275405
-0.00277143
-0.002789
-0.00280674
-0.00282464
-0.00284271
-0.00286095
-0.00287935
-0.00289791
-0.00291662
-0.0029355
-0.00295452
-0.0029737
-0.00299302
-0.00301249
-0.00303211
-0.00305186
-0.00307175
-0.00309178
-0.00311194
-0.00313222
-0.00315263
-0.00317316
-0.00319381
-0.00321457
-0.00323545
-0.00325644
-0.00327753
-0.00329873
-0.00332004
-0.00334145
-0.00336296
-0.00338458
-0.00340629
-0.00342811
-0.00345003
-0.00347204
-0.00349416
-0.00351638
-0.0035387
-0.00356112
-0.00358364
-0.00360626
-0.00362898
-0.00365179
-0.00367471
-0.00369771
-0.00372081
-0.003744
-0.00376728
-0.00379064
-0.00381409
-0.00383761
-0.00386122
-0.00388489
-0.00390865
-0.00393247
-0.00395637
-0.00398034
-0.00400439
-0.0040285
-0.00405268
-0.00407694
-0.00410127
-0.00412567
-0.00415014
-0.0041747
-0.00419932
-0.00422402
-0.00424879
-0.00427364
-0.00429855
-0.00432353
-0.00434858
-0.0043737
-0.00439888
-0.00442412
-0.00444942
-0.00447478
-0.00450019
-0.00452566
-0.00455118
-0.00457675
-0.0046024
-0.00462808
-0.00465384
-0.00467962
-0.0047055
-0.00473141
-0.00475742
-0.00478346
-0.0048096
-0.00483576
-0.00486203