/*--------------------------------*- C++ -*----------------------------------*\
| =========                 |                                                 |
| \\      /  F ield         | OpenFOAM: The Open Source CFD Toolbox           |
|  \\    /   O peration     | Version:  v2006                                 |
|   \\  /    A nd           | Website:  www.openfoam.com                      |
|    \\/     M anipulation  |                                                 |
\*---------------------------------------------------------------------------*/
FoamFile
{
    version     2.0;
    format      ascii;
    class       surfaceScalarField;
    location    "1.6";
    object      phi;
}
// * * * * * * * * * * * * * * * * * * * * * * * * * * * * * * * * * * * * * //

dimensions      [0 3 -1 0 0 0 0];
oriented        oriented;


internalField   nonuniform List<scalar> 
52390
(
1.17003e-06
-3.18248e-07
1.17009e-06
2.80761e-07
1.17315e-06
-2.60002e-07
1.17323e-06
2.18011e-07
1.17676e-06
-2.05441e-07
1.17691e-06
1.68331e-07
1.18033e-06
-1.67439e-07
1.18022e-06
1.2834e-07
1.18342e-06
-1.3661e-07
1.18307e-06
9.84061e-08
1.18607e-06
-1.10003e-07
1.18553e-06
7.55811e-08
1.18837e-06
-8.85333e-08
1.18761e-06
5.71175e-08
1.19033e-06
-7.19255e-08
1.18932e-06
4.20726e-08
1.19194e-06
-5.88652e-08
1.1906e-06
3.03882e-08
1.19317e-06
-4.81386e-08
1.19141e-06
2.17437e-08
1.19401e-06
-3.90045e-08
1.19168e-06
1.54797e-08
1.1944e-06
-3.08602e-08
1.1913e-06
1.09567e-08
1.19422e-06
-2.27127e-08
1.19028e-06
7.35394e-09
1.19285e-06
-1.14808e-08
1.1866e-06
4.44368e-09
1.18214e-06
1.86703e-08
2.36759e-08
1.15365e-06
1.22708e-06
-3.21069e-07
1.22768e-06
2.80158e-07
1.23155e-06
-2.63872e-07
1.23219e-06
2.1738e-07
1.23605e-06
-2.09309e-07
1.23654e-06
1.67846e-07
1.23993e-06
-1.70832e-07
1.24021e-06
1.28056e-07
1.24309e-06
-1.3949e-07
1.24329e-06
9.8208e-08
1.24567e-06
-1.1238e-07
1.24591e-06
7.53443e-08
1.24776e-06
-9.03833e-08
1.24813e-06
5.6743e-08
1.24938e-06
-7.31766e-08
1.24999e-06
4.14643e-08
1.25052e-06
-5.93914e-08
1.2515e-06
2.94029e-08
1.25112e-06
-4.77592e-08
1.25268e-06
2.01886e-08
1.25114e-06
-3.74635e-08
1.2535e-06
1.31183e-08
1.25046e-06
-2.78256e-08
1.25385e-06
7.56892e-09
1.24898e-06
-1.78427e-08
1.25341e-06
2.92932e-09
1.24637e-06
-4.44323e-09
1.24968e-06
1.13321e-09
1.2378e-06
3.0552e-08
3.89669e-08
1.22251e-06
1.28547e-06
-3.23759e-07
1.28904e-06
2.76586e-07
1.29181e-06
-2.66635e-07
1.29498e-06
2.14205e-07
1.29716e-06
-2.11485e-07
1.30002e-06
1.64984e-07
1.30129e-06
-1.721e-07
1.30394e-06
1.254e-07
1.30435e-06
-1.39898e-07
1.30702e-06
9.55366e-08
1.30662e-06
-1.11972e-07
1.30946e-06
7.25008e-08
1.30824e-06
-8.91684e-08
1.31135e-06
5.36349e-08
1.30931e-06
-7.11372e-08
1.31273e-06
3.8043e-08
1.30986e-06
-5.65133e-08
1.31361e-06
2.56467e-08
1.30991e-06
-4.40615e-08
1.31396e-06
1.61447e-08
1.30952e-06
-3.30226e-08
1.31368e-06
8.95096e-09
1.30869e-06
-2.28305e-08
1.3126e-06
3.66122e-09
1.30748e-06
-1.27252e-08
1.31031e-06
1.03858e-10
1.30596e-06
-9.66773e-11
1.30354e-06
3.55678e-09
1.30065e-06
3.3439e-08
6.14654e-08
1.27815e-06
1.34585e-06
-3.25504e-07
1.35198e-06
2.70454e-07
1.35316e-06
-2.67813e-07
1.35867e-06
2.08691e-07
1.3589e-06
-2.11711e-07
1.36386e-06
1.60019e-07
1.36297e-06
-1.71206e-07
1.36754e-06
1.20831e-07
1.36573e-06
-1.38094e-07
1.37013e-06
9.11399e-08
1.3676e-06
-1.09445e-07
1.37191e-06
6.81912e-08
1.3688e-06
-8.60558e-08
1.37302e-06
4.94182e-08
1.36945e-06
-6.7571e-08
1.37352e-06
3.39704e-08
1.36965e-06
-5.26396e-08
1.3735e-06
2.17932e-08
1.36948e-06
-4.00392e-08
1.373e-06
1.26293e-08
1.36898e-06
-2.90077e-08
1.37198e-06
5.94817e-09
1.36816e-06
-1.90041e-08
1.37033e-06
1.4929e-09
1.36708e-06
-9.47484e-09
1.36752e-06
-3.3648e-10
1.36579e-06
1.6276e-09
1.36058e-06
8.77306e-09
1.36008e-06
3.39327e-08
8.46682e-08
1.33688e-06
1.40861e-06
-3.25762e-07
1.4161e-06
2.62963e-07
1.41564e-06
-2.67351e-07
1.42242e-06
2.01913e-07
1.42107e-06
-2.10358e-07
1.42705e-06
1.54037e-07
1.42473e-06
-1.68883e-07
1.43003e-06
1.15531e-07
1.42708e-06
-1.35142e-07
1.4319e-06
8.63143e-08
1.4286e-06
-1.06145e-07
1.433e-06
6.37916e-08
1.42953e-06
-8.25821e-08
1.43349e-06
4.54545e-08
1.42997e-06
-6.40506e-08
1.43349e-06
3.04467e-08
1.43003e-06
-4.91733e-08
1.43312e-06
1.86963e-08
1.42978e-06
-3.66928e-08
1.43244e-06
9.96806e-09
1.42924e-06
-2.58079e-08
1.4314e-06
3.79135e-09
1.42841e-06
-1.60146e-08
1.42979e-06
1.11941e-10
1.42732e-06
-7.01125e-09
1.42708e-06
-9.36171e-11
1.42555e-06
3.16038e-09
1.42112e-06
1.32002e-08
1.41824e-06
3.68191e-08
1.10603e-07
1.3923e-06
1.47435e-06
-3.24439e-07
1.4819e-06
2.55417e-07
1.48012e-06
-2.65575e-07
1.48695e-06
1.95091e-07
1.48467e-06
-2.08081e-07
1.49057e-06
1.48134e-07
1.48767e-06
-1.65984e-07
1.49274e-06
1.10467e-07
1.48956e-06
-1.31963e-07
1.49402e-06
8.1855e-08
1.4908e-06
-1.02928e-07
1.49474e-06
5.98556e-08
1.49156e-06
-7.94108e-08
1.49502e-06
4.19958e-08
1.49192e-06
-6.09469e-08
1.49497e-06
2.73975e-08
1.49194e-06
-4.61443e-08
1.49465e-06
1.59845e-08
1.4917e-06
-3.37361e-08
1.49408e-06
7.57996e-09
1.49119e-06
-2.29196e-08
1.49317e-06
1.81696e-09
1.49041e-06
-1.32594e-08
1.4917e-06
-1.17229e-09
1.48919e-06
-4.49818e-09
1.48942e-06
-3.27928e-10
1.48651e-06
6.06514e-09
1.48432e-06
1.53944e-08
1.48323e-06
3.79118e-08
6.42074e-08
1.52962e-06
1.54356e-06
-3.21786e-07
1.55033e-06
2.48651e-07
1.54766e-06
-2.62909e-07
1.55378e-06
1.88977e-07
1.55107e-06
-2.05377e-07
1.55635e-06
1.42855e-07
1.55334e-06
-1.6297e-07
1.55784e-06
1.05964e-07
1.55475e-06
-1.28874e-07
1.55874e-06
7.78632e-08
1.55573e-06
-9.99127e-08
1.55932e-06
5.62683e-08
1.55636e-06
-7.6459e-08
1.5596e-06
3.87569e-08
1.55667e-06
-5.80178e-08
1.55962e-06
2.44467e-08
1.5567e-06
-4.32237e-08
1.55941e-06
1.32825e-08
1.55651e-06
-3.08394e-08
1.55892e-06
5.16839e-09
1.55609e-06
-2.00906e-08
1.55804e-06
-1.3604e-10
1.55541e-06
-1.06244e-08
1.55652e-06
-2.28173e-09
1.55442e-06
-2.40178e-09
1.55372e-06
3.73437e-10
1.5526e-06
7.18897e-09
1.5477e-06
2.02899e-08
1.54344e-06
4.21745e-08
9.51159e-08
1.51253e-06
1.61651e-06
-3.18168e-07
1.62231e-06
2.42849e-07
1.61904e-06
-2.59641e-07
1.62432e-06
1.83701e-07
1.62136e-06
-2.02418e-07
1.62604e-06
1.3818e-07
1.62294e-06
-1.59877e-07
1.62703e-06
1.01881e-07
1.62392e-06
-1.25767e-07
1.62767e-06
7.41142e-08
1.62463e-06
-9.68788e-08
1.62814e-06
5.2766e-08
1.62513e-06
-7.34575e-08
1.62841e-06
3.54855e-08
1.62539e-06
-5.50064e-08
1.62844e-06
2.14002e-08
1.62543e-06
-4.02117e-08
1.62823e-06
1.04837e-08
1.62527e-06
-2.78839e-08
1.62772e-06
2.72213e-09
1.62492e-06
-1.72948e-08
1.62678e-06
-1.99079e-09
1.6243e-06
-8.14651e-09
1.62513e-06
-3.11182e-09
1.62336e-06
-6.27908e-10
1.62201e-06
1.72189e-09
1.62157e-06
7.62092e-09
1.61648e-06
2.53869e-08
1.61171e-06
4.69419e-08
1.31697e-07
1.57513e-06
1.69328e-06
-3.13874e-07
1.6984e-06
2.37726e-07
1.69463e-06
-2.55872e-07
1.69934e-06
1.78997e-07
1.69608e-06
-1.99156e-07
1.70044e-06
1.33818e-07
1.69712e-06
-1.56561e-07
1.70107e-06
9.79371e-08
1.69774e-06
-1.22437e-07
1.70148e-06
7.0372e-08
1.69821e-06
-9.36107e-08
1.70181e-06
4.91723e-08
1.69857e-06
-7.02214e-08
1.70198e-06
3.20718e-08
1.69876e-06
-5.1783e-08
1.70194e-06
1.82149e-08
1.69877e-06
-3.70384e-08
1.70165e-06
7.60317e-09
1.69862e-06
-2.48492e-08
1.70105e-06
2.93936e-10
1.69827e-06
-1.45183e-08
1.70001e-06
-3.73508e-09
1.69756e-06
-5.68896e-09
1.69853e-06
-4.08419e-09
1.6957e-06
2.19634e-09
1.69644e-06
9.90201e-10
1.69128e-06
1.27782e-08
1.69578e-06
2.08823e-08
1.69685e-06
4.5875e-08
8.22401e-08
1.74631e-06
1.77391e-06
-3.09061e-07
1.77879e-06
2.32846e-07
1.77451e-06
-2.51593e-07
1.77902e-06
1.74492e-07
1.77535e-06
-1.95487e-07
1.77971e-06
1.29456e-07
1.77603e-06
-1.52886e-07
1.78008e-06
9.38952e-08
1.77639e-06
-1.18748e-07
1.78028e-06
6.64766e-08
1.77667e-06
-8.99927e-08
1.78044e-06
4.5396e-08
1.77689e-06
-6.66727e-08
1.78048e-06
2.84826e-08
1.77701e-06
-4.83137e-08
1.78032e-06
1.4907e-08
1.777e-06
-3.37137e-08
1.77989e-06
4.70507e-09
1.77685e-06
-2.18002e-08
1.77913e-06
-1.9862e-09
1.7765e-06
-1.18969e-08
1.77793e-06
-5.1633e-09
1.77576e-06
-3.52055e-09
1.77627e-06
-4.58593e-09
1.77368e-06
4.77863e-09
1.77426e-06
4.12168e-10
1.76816e-06
1.88828e-08
1.77456e-06
1.44765e-08
1.7762e-06
4.42361e-08
2.6452e-08
1.83199e-06
1.85848e-06
-3.03793e-07
1.8635e-06
2.27827e-07
1.85866e-06
-2.46759e-07
1.86328e-06
1.69878e-07
1.85912e-06
-1.91327e-07
1.86371e-06
1.24861e-07
1.8596e-06
-1.48772e-07
1.8639e-06
8.95924e-08
1.85979e-06
-1.14636e-07
1.86394e-06
6.23259e-08
1.85993e-06
-8.59843e-08
1.86394e-06
4.13866e-08
1.86007e-06
-6.27998e-08
1.86384e-06
2.47127e-08
1.86014e-06
-4.46203e-08
1.86354e-06
1.15142e-08
1.86012e-06
-3.02961e-08
1.86296e-06
1.86697e-09
1.85999e-06
-1.88272e-08
1.86201e-06
-4.012e-09
1.85966e-06
-9.54908e-09
1.86062e-06
-6.1225e-09
1.85895e-06
-1.8482e-09
1.85855e-06
-4.18947e-09
1.85737e-06
5.96019e-09
1.85527e-06
2.50955e-09
1.85359e-06
2.05676e-08
1.84858e-06
1.94882e-08
1.8388e-06
5.40181e-08
6.23421e-08
1.80291e-06
1.94713e-06
-2.98087e-07
1.95255e-06
2.2241e-07
1.94711e-06
-2.41317e-07
1.95204e-06
1.64947e-07
1.94733e-06
-1.8662e-07
1.95231e-06
1.19881e-07
1.94772e-06
-1.44175e-07
1.95239e-06
8.49227e-08
1.94783e-06
-1.10075e-07
1.9523e-06
5.78538e-08
1.9479e-06
-8.15824e-08
1.95217e-06
3.71161e-08
1.94799e-06
-5.86253e-08
1.95193e-06
2.07745e-08
1.94807e-06
-4.07572e-08
1.95149e-06
8.09058e-09
1.94807e-06
-2.68769e-08
1.95075e-06
-8.15438e-10
1.94798e-06
-1.60505e-08
1.94964e-06
-5.67687e-09
1.94768e-06
-7.58297e-09
1.94808e-06
-6.52676e-09
1.94697e-06
-7.38238e-10
1.94576e-06
-2.98044e-09
1.94541e-06
6.31395e-09
1.94179e-06
6.12458e-09
1.94276e-06
1.9602e-08
1.9316e-06
3.06443e-08
1.92698e-06
5.86432e-08
9.35749e-08
1.89574e-06
2.04004e-06
-2.91939e-07
2.04602e-06
2.16431e-07
2.03992e-06
-2.35221e-07
2.04531e-06
1.59564e-07
2.04001e-06
-1.81325e-07
2.04547e-06
1.14418e-07
2.04037e-06
-1.3907e-07
2.04547e-06
7.98197e-08
2.04046e-06
-1.05059e-07
2.04529e-06
5.30243e-08
2.04051e-06
-7.68058e-08
2.04504e-06
3.2584e-08
2.04061e-06
-5.41979e-08
2.04468e-06
1.6709e-08
2.04073e-06
-3.6809e-08
2.0441e-06
4.72166e-09
2.04081e-06
-2.35825e-08
2.0432e-06
-3.21489e-09
2.04077e-06
-1.36189e-08
2.04196e-06
-6.86056e-09
2.04049e-06
-6.11205e-09
2.04028e-06
-6.32263e-09
2.03963e-06
-8.90869e-11
2.03809e-06
-1.44029e-09
2.03734e-06
7.06199e-09
2.03417e-06
9.2968e-09
2.03308e-06
2.06955e-08
2.02603e-06
3.76895e-08
2.01454e-06
7.01385e-08
1.26833e-07
1.98128e-06
2.1374e-06
-2.8534e-07
2.14405e-06
2.09782e-07
2.13725e-06
-2.28419e-07
2.14317e-06
1.53639e-07
2.13725e-06
-1.75403e-07
2.14326e-06
1.08409e-07
2.13763e-06
-1.33437e-07
2.1432e-06
7.42467e-08
2.13774e-06
-9.95943e-08
2.14293e-06
4.78299e-08
2.13781e-06
-7.16887e-08
2.14258e-06
2.78177e-08
2.13797e-06
-4.95852e-08
2.14209e-06
1.25832e-08
2.13816e-06
-3.28783e-08
2.14137e-06
1.50963e-09
2.13833e-06
-2.05337e-08
2.14034e-06
-5.22867e-09
2.13836e-06
-1.16349e-08
2.139e-06
-7.50677e-09
2.13801e-06
-5.11695e-09
2.13748e-06
-5.79412e-09
2.13659e-06
7.99891e-10
2.13575e-06
-5.9965e-10
2.13351e-06
9.29752e-09
2.13166e-06
1.11541e-08
2.12603e-06
2.63259e-08
2.132e-06
3.17147e-08
2.15564e-06
4.64975e-08
5.1941e-08
2.23053e-06
2.23942e-06
-2.78277e-07
2.24682e-06
2.02385e-07
2.23927e-06
-2.20863e-07
2.2458e-06
1.47107e-07
2.23922e-06
-1.68822e-07
2.24581e-06
1.01814e-07
2.23964e-06
-1.27265e-07
2.24569e-06
6.81917e-08
2.2398e-06
-9.36992e-08
2.24534e-06
4.2293e-08
2.23994e-06
-6.62884e-08
2.24487e-06
2.28809e-08
2.24017e-06
-4.48866e-08
2.24425e-06
8.50813e-09
2.24048e-06
-2.91104e-08
2.24338e-06
-1.38746e-09
2.24075e-06
-1.79082e-08
2.24221e-06
-6.69111e-09
2.24084e-06
-1.02639e-08
2.2408e-06
-7.46328e-09
2.24047e-06
-4.7896e-09
2.23912e-06
-4.44097e-09
2.23923e-06
6.88284e-10
2.23688e-06
1.75258e-09
2.23627e-06
9.9088e-09
2.23286e-06
1.45634e-08
2.23045e-06
2.87357e-08
2.22341e-06
3.87533e-08
2.20737e-06
6.25346e-08
8.27967e-08
2.17652e-06
2.34633e-06
-2.7073e-07
2.35453e-06
1.94181e-07
2.34617e-06
-2.12503e-07
2.35336e-06
1.39921e-07
2.34609e-06
-1.61554e-07
2.3533e-06
9.46107e-08
2.34658e-06
-1.20553e-07
2.35311e-06
6.16633e-08
2.34682e-06
-8.74078e-08
2.35265e-06
3.64599e-08
2.34704e-06
-6.06799e-08
2.35206e-06
1.7863e-08
2.3474e-06
-4.02205e-08
2.35129e-06
4.61557e-09
2.34784e-06
-2.56605e-08
2.35026e-06
-3.81077e-09
2.34822e-06
-1.58627e-08
2.34901e-06
-7.48018e-09
2.34833e-06
-9.58845e-09
2.34756e-06
-6.69633e-09
2.34792e-06
-5.14964e-09
2.34561e-06
-2.12569e-09
2.34701e-06
-7.12983e-10
2.34275e-06
6.01037e-09
2.34445e-06
8.20996e-09
2.33857e-06
2.04485e-08
2.33944e-06
2.78581e-08
2.32463e-06
5.357e-08
2.31508e-06
7.20802e-08
1.07041e-07
2.29084e-06
2.45835e-06
-2.62688e-07
2.46741e-06
1.85129e-07
2.45821e-06
-2.03305e-07
2.46607e-06
1.32056e-07
2.45811e-06
-1.53587e-07
2.46591e-06
8.68019e-08
2.45868e-06
-1.13323e-07
2.46565e-06
5.47009e-08
2.45902e-06
-8.0784e-08
2.46507e-06
3.04139e-08
2.45936e-06
-5.49729e-08
2.46434e-06
1.2888e-08
2.45984e-06
-3.57263e-08
2.46342e-06
1.04169e-09
2.46041e-06
-2.2652e-08
2.46228e-06
-5.67718e-09
2.46084e-06
-1.44245e-08
2.46103e-06
-7.67441e-09
2.4608e-06
-9.35338e-09
2.45981e-06
-5.70602e-09
2.45998e-06
-5.3231e-09
2.45843e-06
-5.77826e-10
2.45819e-06
-4.75696e-10
2.45601e-06
8.19015e-09
2.45453e-06
9.69135e-09
2.45138e-06
2.36052e-08
2.44883e-06
3.04002e-08
2.4407e-06
6.17081e-08
2.42253e-06
9.02507e-08
1.41243e-07
2.38832e-06
2.57575e-06
-2.54143e-07
2.58568e-06
1.75201e-07
2.57562e-06
-1.93245e-07
2.58417e-06
1.23504e-07
2.57551e-06
-1.44929e-07
2.5839e-06
7.84143e-08
2.5762e-06
-1.05623e-07
2.58353e-06
4.73709e-08
2.57667e-06
-7.39208e-08
2.58281e-06
2.4271e-08
2.57714e-06
-4.9307e-08
2.58192e-06
8.10677e-09
2.57776e-06
-3.15588e-08
2.58087e-06
-2.07145e-09
2.57842e-06
-2.01983e-08
2.57967e-06
-6.93459e-09
2.57881e-06
-1.35639e-08
2.57855e-06
-7.40913e-09
2.57851e-06
-9.31463e-09
2.57768e-06
-4.882e-09
2.57699e-06
-4.62807e-09
2.57716e-06
-7.51432e-10
2.57422e-06
2.46541e-09
2.57532e-06
7.09505e-09
2.56986e-06
1.51485e-08
2.56912e-06
2.4347e-08
2.56123e-06
3.8289e-08
2.57824e-06
4.47022e-08
2.61402e-06
5.4462e-08
5.44108e-08
2.70086e-06
2.69878e-06
-2.45092e-07
2.7096e-06
1.6438e-07
2.69867e-06
-1.82319e-07
2.7079e-06
1.14274e-07
2.69858e-06
-1.35606e-07
2.7075e-06
6.94971e-08
2.6994e-06
-9.75265e-08
2.707e-06
3.97721e-08
2.70003e-06
-6.69496e-08
2.70611e-06
1.8192e-08
2.70067e-06
-4.38678e-08
2.70505e-06
3.72059e-09
2.70143e-06
-2.79378e-08
2.70386e-06
-4.50385e-09
2.70215e-06
-1.84861e-08
2.70266e-06
-7.44475e-09
2.7025e-06
-1.34026e-08
2.70157e-06
-6.47939e-09
2.70214e-06
-9.88285e-09
2.70054e-06
-3.28222e-09
2.70105e-06
-5.14034e-09
2.69915e-06
1.14996e-09
2.69886e-06
2.75356e-09
2.69657e-06
9.38537e-09
2.69465e-06
1.70703e-08
2.69175e-06
2.72525e-08
2.68823e-06
4.18022e-08
2.67917e-06
5.37654e-08
2.65802e-06
7.56147e-08
8.92561e-08
2.62317e-06
2.82771e-06
-2.3553e-07
2.83943e-06
1.52654e-07
2.82764e-06
-1.70524e-07
2.83753e-06
1.04384e-07
2.82757e-06
-1.25651e-07
2.83696e-06
6.01089e-08
2.82855e-06
-8.91112e-08
2.83631e-06
3.20047e-08
2.82936e-06
-5.99937e-08
2.83525e-06
1.22997e-08
2.83012e-06
-3.87396e-08
2.83407e-06
-2.26571e-10
2.83102e-06
-2.48857e-08
2.83278e-06
-6.27149e-09
2.83176e-06
-1.74584e-08
2.83163e-06
-7.31732e-09
2.83199e-06
-1.37635e-08
2.8306e-06
-5.09102e-09
2.83167e-06
-1.09483e-08
2.82917e-06
-7.90143e-10
2.8311e-06
-7.06251e-09
2.82674e-06
5.50704e-09
2.82996e-06
-4.65778e-10
2.82344e-06
1.59072e-08
2.82698e-06
1.35272e-08
2.81929e-06
3.49382e-08
2.82038e-06
4.07171e-08
2.79978e-06
7.43642e-08
2.79034e-06
8.5059e-08
1.14007e-07
2.76559e-06
2.96283e-06
-2.25465e-07
2.97544e-06
1.40044e-07
2.96282e-06
-1.57902e-07
2.97331e-06
9.38968e-08
2.9628e-06
-1.15144e-07
2.97254e-06
5.03675e-08
2.96395e-06
-8.05236e-08
2.97171e-06
2.42514e-08
2.96499e-06
-5.32791e-08
2.9704e-06
6.89018e-09
2.96604e-06
-3.43831e-08
2.96896e-06
-3.13812e-09
2.96702e-06
-2.29521e-08
2.96776e-06
-7.00443e-09
2.96757e-06
-1.72754e-08
2.96688e-06
-6.6214e-09
2.96745e-06
-1.43326e-08
2.9662e-06
-3.85061e-09
2.96681e-06
-1.1557e-08
2.9652e-06
8.26933e-10
2.96539e-06
-7.25507e-09
2.96346e-06
7.43296e-09
2.96326e-06
-2.67077e-10
2.96005e-06
1.91223e-08
2.9584e-06
1.51812e-08
2.95586e-06
3.74728e-08
2.95315e-06
4.34302e-08
2.94213e-06
8.5383e-08
2.91666e-06
1.10529e-07
1.51932e-07
2.87873e-06
3.10446e-06
-2.14921e-07
3.11792e-06
1.26588e-07
3.10453e-06
-1.44516e-07
3.11554e-06
8.28929e-08
3.10457e-06
-1.04181e-07
3.11455e-06
4.03938e-08
3.10592e-06
-7.18939e-08
3.11353e-06
1.66424e-08
3.10716e-06
-4.69097e-08
3.11209e-06
1.96169e-09
3.10823e-06
-3.05246e-08
3.11073e-06
-5.6409e-09
3.10899e-06
-2.1216e-08
3.10995e-06
-7.9623e-09
3.10885e-06
-1.61771e-08
3.10991e-06
-7.68e-09
3.10772e-06
-1.21434e-08
3.11029e-06
-6.4189e-09
3.10565e-06
-6.91115e-09
3.11072e-06
-4.243e-09
3.10274e-06
7.16086e-10
3.11046e-06
-2.80671e-10
3.0998e-06
1.03926e-08
3.10783e-06
1.10959e-08
3.09556e-06
2.74507e-08
3.09897e-06
3.40607e-08
3.0884e-06
5.39946e-08
3.12124e-06
5.2549e-08
3.16733e-06
6.4441e-08
5.98153e-08
3.25944e-06
3.25292e-06
-2.03934e-07
3.26716e-06
1.12347e-07
3.25312e-06
-1.30476e-07
3.26452e-06
7.14943e-08
3.25324e-06
-9.29039e-08
3.26327e-06
3.03675e-08
3.2548e-06
-6.34272e-08
3.26203e-06
9.42002e-09
3.25631e-06
-4.11931e-08
3.26033e-06
-2.06011e-09
3.2576e-06
-2.77931e-08
3.25884e-06
-6.8818e-09
3.25847e-06
-2.08402e-08
3.25791e-06
-7.41102e-09
3.25862e-06
-1.68862e-08
3.25728e-06
-6.3337e-09
3.25849e-06
-1.33516e-08
3.2562e-06
-4.13621e-09
3.2583e-06
-9.01182e-09
3.25438e-06
-3.20389e-10
3.2577e-06
-2.60155e-09
3.25161e-06
5.80358e-09
3.25536e-06
6.65145e-09
3.24818e-06
1.82717e-08
3.25208e-06
2.3546e-08
3.24586e-06
4.02811e-08
3.24734e-06
5.2514e-08
3.22663e-06
7.32648e-08
3.20307e-06
8.80024e-08
1.01655e-07
3.16123e-06
3.40853e-06
-1.92534e-07
3.42348e-06
9.73978e-08
3.40892e-06
-1.15912e-07
3.42056e-06
5.9847e-08
3.40913e-06
-8.14725e-08
3.419e-06
2.04979e-08
3.41093e-06
-5.53575e-08
3.4175e-06
2.85378e-09
3.41277e-06
-3.64663e-08
3.4155e-06
-4.7841e-09
3.41429e-06
-2.65822e-08
3.41392e-06
-6.51892e-09
3.41509e-06
-2.2011e-08
3.41303e-06
-5.34534e-09
3.41527e-06
-1.91316e-08
3.41223e-06
-3.29292e-09
3.41538e-06
-1.65036e-08
3.41095e-06
2.93832e-10
3.41497e-06
-1.3031e-08
3.40928e-06
5.3741e-09
3.41429e-06
-7.61605e-09
3.40625e-06
1.38498e-08
3.41222e-06
6.82485e-10
3.40299e-06
2.74973e-08
3.40801e-06
1.85274e-08
3.40174e-06
4.65504e-08
3.40653e-06
4.7723e-08
3.38215e-06
9.76475e-08
3.35513e-06
1.1502e-07
1.46144e-07
3.31064e-06
3.57166e-06
-1.80785e-07
3.58719e-06
8.18697e-08
3.57229e-06
-1.01014e-07
3.58401e-06
4.8132e-08
3.57258e-06
-7.00416e-08
3.58215e-06
1.09205e-08
3.57447e-06
-4.76778e-08
3.58065e-06
-3.32638e-09
3.57616e-06
-3.19713e-08
3.57909e-06
-7.71964e-09
3.57693e-06
-2.44157e-08
3.57856e-06
-8.15156e-09
3.57652e-06
-1.99699e-08
3.57901e-06
-7.83709e-09
3.57512e-06
-1.52408e-08
3.57996e-06
-8.13066e-09
3.57285e-06
-9.39475e-09
3.58144e-06
-8.29664e-09
3.56983e-06
-1.41949e-09
3.58201e-06
-6.80897e-09
3.56662e-06
7.77958e-09
3.58217e-06
-1.70641e-09
3.5635e-06
1.93574e-08
3.57984e-06
1.1158e-08
3.55954e-06
3.882e-08
3.56976e-06
3.6339e-08
3.55562e-06
6.18538e-08
3.6041e-06
4.91761e-08
3.65618e-06
6.29386e-08
5.82563e-08
3.74406e-06
3.74269e-06
-1.68772e-07
3.75863e-06
6.59283e-08
3.74367e-06
-8.60468e-08
3.75519e-06
3.66029e-08
3.74401e-06
-5.88606e-08
3.75296e-06
1.97504e-09
3.74608e-06
-4.08033e-08
3.75129e-06
-8.53521e-09
3.74795e-06
-2.86234e-08
3.74957e-06
-9.33878e-09
3.74912e-06
-2.39688e-08
3.74833e-06
-7.36219e-09
3.74991e-06
-2.15544e-08
3.74691e-06
-4.82993e-09
3.75084e-06
-1.91731e-08
3.74522e-06
-2.51607e-09
3.75142e-06
-1.55906e-08
3.7434e-06
-2.7658e-10
3.75164e-06
-9.66113e-09
3.74179e-06
3.04252e-09
3.74982e-06
-2.55426e-10
3.73919e-06
8.92588e-09
3.74669e-06
1.18581e-08
3.73705e-06
2.07995e-08
3.74485e-06
3.10222e-08
3.73802e-06
4.3172e-08
3.73772e-06
6.21443e-08
3.71444e-06
7.24657e-08
3.68401e-06
9.33606e-08
1.07477e-07
3.63479e-06
3.92198e-06
-1.56562e-07
3.93813e-06
4.97724e-08
3.92344e-06
-7.13564e-08
3.93446e-06
2.559e-08
3.92386e-06
-4.82681e-08
3.93175e-06
-5.90604e-09
3.92596e-06
-3.50213e-08
3.93014e-06
-1.27091e-08
3.92768e-06
-2.61677e-08
3.92865e-06
-1.03059e-08
3.92874e-06
-2.40587e-08
3.92731e-06
-5.93641e-09
3.93009e-06
-2.43309e-08
3.92519e-06
7.33932e-11
3.9315e-06
-2.54831e-08
3.92282e-06
6.15629e-09
3.93311e-06
-2.58791e-08
3.91982e-06
1.3014e-08
3.9344e-06
-2.42438e-08
3.91636e-06
2.10854e-08
3.9349e-06
-1.87891e-08
3.91307e-06
3.07553e-08
3.93361e-06
-8.68686e-09
3.91137e-06
4.30373e-08
3.93379e-06
8.60087e-09
3.91542e-06
6.15445e-08
3.9363e-06
4.12692e-08
3.89054e-06
1.18225e-07
3.85797e-06
1.25933e-07
1.55252e-07
3.81019e-06
4.10995e-06
-1.44259e-07
4.12609e-06
3.36251e-08
4.112e-06
-5.7265e-08
4.12232e-06
1.52685e-08
4.11217e-06
-3.81171e-08
4.11955e-06
-1.3284e-08
4.11368e-06
-2.91541e-08
4.11897e-06
-1.7993e-08
4.11383e-06
-2.10293e-08
4.11957e-06
-1.60492e-08
4.1125e-06
-1.69866e-08
4.12088e-06
-1.43124e-08
4.1104e-06
-1.38541e-08
4.12254e-06
-1.20654e-08
4.10826e-06
-1.12035e-08
4.12361e-06
-9.18969e-09
4.10628e-06
-8.54964e-09
4.12409e-06
-4.79965e-09
4.10447e-06
-4.62673e-09
4.12355e-06
2.00489e-09
4.10292e-06
1.84672e-09
4.12107e-06
1.26033e-08
4.10075e-06
1.16328e-08
4.1167e-06
2.70831e-08
4.09803e-06
2.72733e-08
4.11616e-06
4.34143e-08
4.10761e-06
4.98224e-08
4.1583e-06
6.75336e-08
4.21037e-06
7.38628e-08
8.51673e-08
4.28045e-06
4.30707e-06
-1.32024e-07
4.32283e-06
1.78609e-08
4.31024e-06
-4.46714e-08
4.31893e-06
6.5749e-09
4.31016e-06
-2.93498e-08
4.31558e-06
-1.86956e-08
4.31142e-06
-2.5002e-08
4.3151e-06
-2.167e-08
4.31143e-06
-1.73614e-08
4.31591e-06
-2.05309e-08
4.31018e-06
-1.12543e-08
4.31714e-06
-2.12685e-08
4.30828e-06
-4.99847e-09
4.3188e-06
-2.25812e-08
4.30582e-06
1.77505e-09
4.32013e-06
-2.34969e-08
4.3036e-06
7.97656e-09
4.32092e-06
-2.21145e-08
4.30141e-06
1.48797e-08
4.32064e-06
-1.72254e-08
4.29923e-06
2.32524e-08
4.31936e-06
-7.51828e-09
4.29679e-06
3.42029e-08
4.31499e-06
8.87734e-09
4.29304e-06
4.92282e-08
4.3122e-06
2.42455e-08
4.31048e-06
5.15455e-08
4.36141e-06
1.66026e-08
4.40972e-06
2.55546e-08
4.22865e-09
4.49066e-06
4.51381e-06
-1.20055e-07
4.52866e-06
3.00889e-09
4.51938e-06
-3.53932e-08
4.52491e-06
1.04727e-09
4.51792e-06
-2.23596e-08
4.52086e-06
-2.16387e-08
4.51885e-06
-2.29895e-08
4.51958e-06
-2.24014e-08
4.5198e-06
-1.75804e-08
4.51919e-06
-1.99206e-08
4.52099e-06
-1.30595e-08
4.51806e-06
-1.83353e-08
4.5219e-06
-8.83722e-09
4.51653e-06
-1.72132e-08
4.52261e-06
-4.30803e-09
4.51514e-06
-1.60256e-08
4.5227e-06
4.13884e-10
4.51388e-06
-1.32864e-08
4.52186e-06
6.89677e-09
4.51198e-06
-7.3508e-09
4.5191e-06
1.6141e-08
4.50824e-06
3.34058e-09
4.513e-06
2.94412e-08
4.50437e-06
1.7504e-08
4.5121e-06
4.15054e-08
4.5049e-06
3.14407e-08
4.50855e-06
4.78917e-08
4.48002e-06
4.51363e-08
4.44237e-06
6.32067e-08
6.18819e-08
4.38471e-06
4.73039e-06
-1.08328e-07
4.74464e-06
-1.12416e-08
4.73637e-06
-2.71256e-08
4.74155e-06
-4.13383e-09
4.73501e-06
-1.58212e-08
4.73667e-06
-2.32941e-08
4.73558e-06
-2.19029e-08
4.73486e-06
-2.1681e-08
4.73764e-06
-2.03597e-08
4.73373e-06
-1.60067e-08
4.73952e-06
-1.88523e-08
4.7318e-06
-1.06168e-08
4.74106e-06
-1.80987e-08
4.72945e-06
-5.60053e-09
4.74261e-06
-1.74659e-08
4.72734e-06
-7.54285e-10
4.74322e-06
-1.54728e-08
4.72568e-06
4.2539e-09
4.74284e-06
-1.02631e-08
4.72426e-06
1.12286e-08
4.74132e-06
-9.18024e-10
4.72282e-06
2.18446e-08
4.73997e-06
1.22923e-08
4.72286e-06
3.46153e-08
4.73669e-06
2.76703e-08
4.71444e-06
5.36913e-08
4.71154e-06
5.07923e-08
4.68671e-06
6.99627e-08
4.68025e-06
6.96673e-08
9.4311e-08
4.64782e-06
4.95774e-06
-9.72719e-08
4.96949e-06
-2.29908e-08
4.96698e-06
-2.46177e-08
4.96595e-06
-3.09603e-09
4.96601e-06
-1.58893e-08
4.96121e-06
-1.84871e-08
4.96409e-06
-2.47846e-08
4.96047e-06
-1.80604e-08
4.96488e-06
-2.47682e-08
4.96053e-06
-1.16622e-08
4.96551e-06
-2.38278e-08
4.96013e-06
-5.23871e-09
4.96565e-06
-2.36226e-08
4.9594e-06
6.57227e-10
4.96506e-06
-2.31346e-08
4.95918e-06
5.12484e-09
4.96429e-06
-2.05792e-08
4.95794e-06
1.06028e-08
4.96161e-06
-1.39335e-08
4.95423e-06
1.86107e-08
4.95616e-06
-2.85219e-09
4.94949e-06
2.85237e-08
4.95085e-06
1.09233e-08
4.94715e-06
3.83216e-08
4.94754e-06
2.72782e-08
4.94934e-06
5.18957e-08
4.94719e-06
5.29352e-08
4.9187e-06
9.84534e-08
4.8752e-06
1.13165e-07
1.30861e-07
4.83865e-06
5.19567e-06
-8.66244e-08
5.20702e-06
-3.43413e-08
5.20253e-06
-2.01293e-08
5.20668e-06
-7.24954e-09
5.19813e-06
-7.33672e-09
5.20486e-06
-2.52141e-08
5.19549e-06
-1.54181e-08
5.20629e-06
-2.8855e-08
5.19373e-06
-1.22093e-08
5.20841e-06
-2.63468e-08
5.19165e-06
-7.0603e-09
5.2101e-06
-2.36944e-08
5.18941e-06
-2.92901e-09
5.21149e-06
-2.14288e-08
5.18772e-06
6.40388e-10
5.21156e-06
-1.8719e-08
5.18706e-06
3.91849e-09
5.21076e-06
-1.30974e-08
5.18679e-06
1.00444e-08
5.20947e-06
-4.07573e-09
5.18688e-06
1.97444e-08
5.2058e-06
9.60232e-09
5.18243e-06
3.4293e-08
5.19301e-06
2.77404e-08
5.17281e-06
4.74814e-08
5.18446e-06
4.02388e-08
5.19032e-06
4.70825e-08
5.26249e-06
2.6278e-08
5.34946e-06
2.61966e-08
2.69442e-08
5.45338e-06
5.44555e-06
-7.69805e-08
5.45218e-06
-4.09809e-08
5.45586e-06
-2.38067e-08
5.45007e-06
-1.45962e-09
5.45551e-06
-1.27769e-08
5.44612e-06
-1.58216e-08
5.45254e-06
-2.18345e-08
5.44577e-06
-2.20908e-08
5.45197e-06
-1.841e-08
5.44691e-06
-2.12838e-08
5.45174e-06
-1.18923e-08
5.44773e-06
-1.96794e-08
5.45085e-06
-6.05267e-09
5.44671e-06
-1.72898e-08
5.44876e-06
-1.40643e-09
5.44436e-06
-1.43208e-08
5.44484e-06
3.44311e-09
5.44171e-06
-9.97569e-09
5.44263e-06
9.12461e-09
5.4388e-06
-2.40798e-10
5.43951e-06
1.90293e-08
5.43537e-06
1.37426e-08
5.43568e-06
3.39849e-08
5.43365e-06
2.97712e-08
5.43485e-06
4.62797e-08
5.43412e-06
4.09743e-08
5.4235e-06
5.76978e-08
5.39721e-06
5.25699e-08
5.35869e-06
6.4712e-08
6.48468e-08
5.32079e-06
5.70691e-06
-6.79313e-08
5.71279e-06
-4.68619e-08
5.71485e-06
-2.58628e-08
5.71517e-06
-1.78015e-09
5.71495e-06
-1.25597e-08
5.71061e-06
-1.14847e-08
5.71095e-06
-2.21711e-08
5.70714e-06
-1.82851e-08
5.71144e-06
-2.2703e-08
5.70767e-06
-1.75184e-08
5.71325e-06
-1.74688e-08
5.70725e-06
-1.36815e-08
5.71351e-06
-1.23165e-08
5.70605e-06
-9.82357e-09
5.71338e-06
-8.73856e-09
5.7048e-06
-5.74568e-09
5.71253e-06
-4.28379e-09
5.70242e-06
1.32251e-10
5.70783e-06
3.71409e-09
5.69837e-06
9.21897e-09
5.70272e-06
1.46842e-08
5.69566e-06
2.08012e-08
5.70069e-06
2.89593e-08
5.69363e-06
3.68322e-08
5.69389e-06
4.60142e-08
5.68141e-06
5.34547e-08
5.6765e-06
6.26043e-08
5.65936e-06
6.97144e-08
5.64442e-06
7.96476e-08
8.77517e-08
5.62152e-06
5.98103e-06
-5.97693e-08
5.98137e-06
-4.71977e-08
5.98877e-06
-3.32626e-08
5.98761e-06
-6.23973e-10
5.99012e-06
-1.50693e-08
5.98165e-06
-3.01907e-09
5.98753e-06
-2.8046e-08
5.97887e-06
-9.62869e-09
5.98812e-06
-3.19471e-08
5.97919e-06
-8.592e-09
5.98845e-06
-2.67336e-08
5.97949e-06
-4.72067e-09
5.98743e-06
-2.02552e-08
5.979e-06
-1.38774e-09
5.98385e-06
-1.35921e-08
5.97622e-06
1.88406e-09
5.97882e-06
-6.88225e-09
5.97303e-06
5.92257e-09
5.97574e-06
1.00133e-09
5.97081e-06
1.41492e-08
5.97366e-06
1.18365e-08
5.96899e-06
2.54683e-08
5.97251e-06
2.54462e-08
5.96742e-06
4.19159e-08
5.96692e-06
4.65157e-08
5.95501e-06
6.53625e-08
5.94885e-06
6.87704e-08
5.93194e-06
8.66242e-08
5.91926e-06
9.23278e-08
1.02749e-07
5.90426e-06
6.26824e-06
-5.25191e-08
6.26555e-06
-4.4513e-08
6.27619e-06
-4.39003e-08
6.27057e-06
4.99249e-09
6.27866e-06
-2.31575e-08
6.26615e-06
9.49335e-09
6.27571e-06
-3.76037e-08
6.26444e-06
1.64277e-09
6.27588e-06
-4.33859e-08
6.26481e-06
2.47084e-09
6.27586e-06
-3.77829e-08
6.26492e-06
6.21981e-09
6.27499e-06
-3.03192e-08
6.26439e-06
9.20874e-09
6.27338e-06
-2.25808e-08
6.26243e-06
1.28309e-08
6.26918e-06
-1.36269e-08
6.25847e-06
1.66237e-08
6.26378e-06
-4.30625e-09
6.25642e-06
2.15132e-08
6.25977e-06
8.4803e-09
6.25334e-06
3.18983e-08
6.25526e-06
2.35328e-08
6.25293e-06
4.4246e-08
6.26052e-06
3.89241e-08
6.25645e-06
6.94341e-08
6.24751e-06
7.77122e-08
6.21278e-06
1.21352e-07
6.16412e-06
1.4099e-07
1.2945e-07
6.13742e-06
6.56773e-06
-4.47782e-08
6.57734e-06
-5.41195e-08
6.56162e-06
-2.81857e-08
6.58069e-06
-1.40772e-08
6.56132e-06
-3.78641e-09
6.58179e-06
-1.09759e-08
6.55984e-06
-1.56549e-08
6.5816e-06
-2.01148e-08
6.55968e-06
-2.14733e-08
6.5817e-06
-1.95432e-08
6.55969e-06
-1.57777e-08
6.58104e-06
-1.5123e-08
6.55979e-06
-9.07463e-09
6.57993e-06
-1.09276e-08
6.56017e-06
-2.82033e-09
6.57817e-06
-5.17091e-09
6.56046e-06
4.07872e-09
6.57494e-06
2.15013e-09
6.5582e-06
1.24284e-08
6.56685e-06
1.28618e-08
6.55448e-06
2.08497e-08
6.56126e-06
2.51205e-08
6.54813e-06
3.6665e-08
6.55037e-06
4.20108e-08
6.54173e-06
4.75617e-08
6.56935e-06
4.18161e-08
6.6037e-06
4.33583e-08
6.68524e-06
3.98094e-08
6.78536e-06
4.08679e-08
5.864e-08
6.85617e-06
6.88453e-06
-3.95203e-08
6.87797e-06
-4.756e-08
6.89037e-06
-4.05793e-08
6.88238e-06
-6.09022e-09
6.89371e-06
-1.51175e-08
6.88302e-06
-2.87712e-10
6.88985e-06
-2.2482e-08
6.88155e-06
-1.18106e-08
6.88724e-06
-2.71669e-08
6.88082e-06
-1.3129e-08
6.88684e-06
-2.17906e-08
6.88008e-06
-8.36283e-09
6.88526e-06
-1.42532e-08
6.87664e-06
-2.30698e-09
6.88089e-06
-7.07319e-09
6.8731e-06
2.6182e-09
6.87735e-06
-1.76457e-10
6.87072e-06
8.7885e-09
6.87425e-06
8.89773e-09
6.8693e-06
1.78088e-08
6.87184e-06
1.83073e-08
6.87234e-06
2.46202e-08
6.88601e-06
2.29973e-08
6.89872e-06
2.92976e-08
6.90994e-06
3.63463e-08
6.89649e-06
5.52694e-08
6.86918e-06
7.06654e-08
6.81666e-06
9.23313e-08
6.75053e-06
1.06997e-07
8.18758e-08
6.72729e-06
7.21243e-06
-3.28104e-08
7.2246e-06
-5.97381e-08
7.20218e-06
-1.81572e-08
7.22648e-06
-3.0383e-08
7.20268e-06
8.67451e-09
7.22825e-06
-2.58569e-08
7.20221e-06
3.56259e-09
7.22742e-06
-3.70199e-08
7.20342e-06
-3.17163e-09
7.22581e-06
-3.55126e-08
7.20464e-06
-6.29255e-10
7.22391e-06
-2.76282e-08
7.20583e-06
3.82314e-09
7.2218e-06
-1.82767e-08
7.206e-06
8.73232e-09
7.21715e-06
-8.53886e-09
7.20196e-06
1.50195e-08
7.2095e-06
1.24904e-09
7.19808e-06
2.03172e-08
7.20497e-06
1.09157e-08
7.19696e-06
2.63176e-08
7.2019e-06
1.96822e-08
7.18974e-06
3.51598e-08
7.19015e-06
2.88806e-08
7.19031e-06
3.61894e-08
7.2218e-06
2.3776e-08
7.26886e-06
2.36079e-08
7.35247e-06
8.72758e-09
7.45596e-06