/*--------------------------------*- C++ -*----------------------------------*\
| =========                 |                                                 |
| \\      /  F ield         | OpenFOAM: The Open Source CFD Toolbox           |
|  \\    /   O peration     | Version:  v2006                                 |
|   \\  /    A nd           | Website:  www.openfoam.com                      |
|    \\/     M anipulation  |                                                 |
\*---------------------------------------------------------------------------*/
FoamFile
{
    version     2.0;
    format      ascii;
    class       volVectorField;
    location    "1.6";
    object      U;
}
// * * * * * * * * * * * * * * * * * * * * * * * * * * * * * * * * * * * * * //

dimensions      [0 1 -1 0 0 0 0];


internalField   nonuniform List<vector> 
26400
(
(0.909038 -0.00476288 0)
(1.09185 0.00445335 0)
(0.913132 -0.00433004 0)
(1.09151 0.00386616 0)
(0.919388 -0.00381163 0)
(1.09214 0.00333901 0)
(0.925085 -0.00346539 0)
(1.09266 0.00284376 0)
(0.930067 -0.00315518 0)
(1.09312 0.00243458 0)
(0.934327 -0.00283405 0)
(1.09358 0.00208715 0)
(0.937914 -0.00254316 0)
(1.09408 0.00175899 0)
(0.940813 -0.00230303 0)
(1.0947 0.00144126 0)
(0.942922 -0.0021002 0)
(1.09551 0.00115147 0)
(0.94412 -0.00191149 0)
(1.09658 0.000900741 0)
(0.94424 -0.00171944 0)
(1.09803 0.000684197 0)
(0.943051 -0.00150427 0)
(1.09994 0.000489661 0)
(0.940227 -0.00121724 0)
(1.10229 0.00028906 0)
(0.935258 -0.00067 0)
(1.10458 2.60838e-05 0)
(0.926805 0.00111163 0)
(1.10573 0.000367615 0)
(0.915927 -0.00480316 0)
(1.08603 0.00445488 0)
(0.92253 -0.00439543 0)
(1.08565 0.00386565 0)
(0.930446 -0.00388854 0)
(1.08562 0.00333696 0)
(0.937497 -0.00354573 0)
(1.08509 0.00284537 0)
(0.94381 -0.00323625 0)
(1.08416 0.00244053 0)
(0.949552 -0.0029155 0)
(1.08285 0.0020969 0)
(0.954915 -0.00262483 0)
(1.08112 0.00177272 0)
(0.960034 -0.00238388 0)
(1.07891 0.00146055 0)
(0.965015 -0.00217831 0)
(1.07606 0.00117905 0)
(0.970031 -0.00198483 0)
(1.07235 0.00094133 0)
(0.97532 -0.00178526 0)
(1.06742 0.000745818 0)
(0.981181 -0.00155396 0)
(1.06081 0.000579526 0)
(0.987935 -0.00122326 0)
(1.05178 0.000391592 0)
(0.995772 -0.000546444 0)
(1.03909 0.00021636 0)
(1.00437 0.00202187 0)
(1.0201 0.00151586 0)
(0.928108 -0.00484938 0)
(1.07425 0.00443087 0)
(0.937586 -0.00445731 0)
(1.07358 0.00383982 0)
(0.94767 -0.00395336 0)
(1.07249 0.0033103 0)
(0.956453 -0.00360303 0)
(1.07042 0.00281945 0)
(0.964334 -0.00328262 0)
(1.06762 0.00241167 0)
(0.971618 -0.00294787 0)
(1.0642 0.00206 0)
(0.978524 -0.00263818 0)
(1.06016 0.00172195 0)
(0.985161 -0.00237017 0)
(1.05555 0.00138843 0)
(0.991555 -0.0021254 0)
(1.05038 0.00107387 0)
(0.9977 -0.00187544 0)
(1.04472 0.000786133 0)
(1.0035 -0.00159605 0)
(1.03866 0.000520058 0)
(1.00874 -0.00126149 0)
(1.0324 0.000272456 0)
(1.01302 -0.000826594 0)
(1.02613 4.60435e-05 0)
(1.01566 -0.000130233 0)
(1.01993 6.01557e-05 0)
(1.01545 0.00216842 0)
(1.0142 0.00376324 0)
(0.94342 -0.00488235 0)
(1.05836 0.00435579 0)
(0.954363 -0.00449129 0)
(1.0572 0.00376366 0)
(0.965627 -0.00397529 0)
(1.05522 0.0032329 0)
(0.975141 -0.00360402 0)
(1.05209 0.00273806 0)
(0.983399 -0.00326084 0)
(1.04829 0.00232018 0)
(0.990714 -0.00290125 0)
(1.04411 0.00195345 0)
(0.997224 -0.00256365 0)
(1.03971 0.00159677 0)
(1.00294 -0.00226452 0)
(1.03529 0.0012427 0)
(1.00779 -0.00198654 0)
(1.03104 0.000907719 0)
(1.01172 -0.00170363 0)
(1.02712 0.000603864 0)
(1.01463 -0.00139413 0)
(1.02364 0.000332814 0)
(1.01641 -0.00103875 0)
(1.02064 0.000104728 0)
(1.01695 -0.000584853 0)
(1.01797 -4.93402e-05 0)
(1.01606 0.000157479 0)
(1.0152 0.000240775 0)
(1.01341 0.00254424 0)
(1.01236 0.00593978 0)
(0.959194 -0.0048942 0)
(1.04142 0.00424157 0)
(0.969519 -0.00449522 0)
(1.03991 0.003648 0)
(0.9802 -0.00396078 0)
(1.0377 0.00311716 0)
(0.988826 -0.00356473 0)
(1.03456 0.0026202 0)
(0.995882 -0.00319859 0)
(1.03114 0.0021961 0)
(1.00168 -0.00281823 0)
(1.02779 0.00182232 0)
(1.00634 -0.0024615 0)
(1.02469 0.00146029 0)
(1.00991 -0.0021453 0)
(1.02196 0.00110414 0)
(1.01245 -0.00185329 0)
(1.01967 0.000771451 0)
(1.01405 -0.00155983 0)
(1.01783 0.000476098 0)
(1.01481 -0.00124283 0)
(1.01633 0.000224199 0)
(1.0148 -0.000886126 0)
(1.01499 2.9439e-05 0)
(1.01406 -0.00046997 0)
(1.0135 -9.75518e-06 0)
(1.01247 2.70887e-05 0)
(1.01146 0.00109683 0)
(1.00992 0.00165028 0)
(1.0092 0.00843363 0)
(0.973049 -0.00488299 0)
(1.02637 0.00411441 0)
(0.981071 -0.0044744 0)
(1.02487 0.00351957 0)
(0.989718 -0.00392454 0)
(1.02312 0.00299193 0)
(0.996314 -0.00350806 0)
(1.0208 0.00249859 0)
(1.00134 -0.00312571 0)
(1.01854 0.00207561 0)
(1.00514 -0.00273323 0)
(1.0166 0.00170359 0)
(1.0079 -0.00236635 0)
(1.01501 0.00134516 0)
(1.00974 -0.002041 0)
(1.01377 0.000994003 0)
(1.01081 -0.00174065 0)
(1.01279 0.000667125 0)
(1.01128 -0.00143949 0)
(1.01202 0.000380659 0)
(1.01127 -0.00111755 0)
(1.01128 0.000149395 0)
(1.01082 -0.000760406 0)
(1.01042 -1.00721e-05 0)
(1.00991 -0.000371578 0)
(1.00919 3.59802e-05 0)
(1.00838 0.000221632 0)
(1.00731 0.00105942 0)
(1.00625 0.00260445 0)
(1.00554 0.00619686 0)
(0.983628 -0.00485129 0)
(1.01493 0.00399571 0)
(0.988671 -0.00443619 0)
(1.01374 0.00340022 0)
(0.99476 -0.00387783 0)
(1.01274 0.00287771 0)
(0.999121 -0.00344694 0)
(1.01141 0.00239079 0)
(1.00222 -0.00305394 0)
(1.01025 0.00197077 0)
(1.00444 -0.00265369 0)
(1.0094 0.00160059 0)
(1.00594 -0.00227828 0)
(1.00879 0.00124295 0)
(1.00687 -0.00194183 0)
(1.00831 0.000889832 0)
(1.00732 -0.00162682 0)
(1.00791 0.000556915 0)
(1.00743 -0.00130699 0)
(1.0075 0.000262421 0)
(1.00725 -0.00096335 0)
(1.007 2.55454e-05 0)
(1.00675 -0.000564955 0)
(1.00628 -0.000136344 0)
(1.00586 -0.000117197 0)
(1.00515 -0.000112435 0)
(1.0044 0.00076649 0)
(1.00345 0.000588398 0)
(1.00242 0.00408973 0)
(1.002 0.00466398 0)
(0.990764 -0.00480389 0)
(1.00734 0.00389476 0)
(0.993101 -0.0043863 0)
(1.00653 0.0032986 0)
(0.996944 -0.00382548 0)
(1.00618 0.00277957 0)
(0.999528 -0.00338414 0)
(1.00558 0.00229736 0)
(1.00127 -0.0029829 0)
(1.00509 0.00187759 0)
(1.00249 -0.00257629 0)
(1.0048 0.001506 0)
(1.00332 -0.00219329 0)
(1.00461 0.00114657 0)
(1.00382 -0.00184747 0)
(1.00444 0.000791298 0)
(1.00404 -0.00152257 0)
(1.00423 0.000457508 0)
(1.00402 -0.00119552 0)
(1.00394 0.000169398 0)
(1.00378 -0.000854523 0)
(1.00352 -4.64181e-05 0)
(1.00327 -0.000484168 0)
(1.00284 -0.000133038 0)
(1.00238 -0.00010271 0)
(1.00176 0.000132191 0)
(1.00096 0.00028482 0)
(1.0002 0.0018563 0)
(0.999242 0.00259455 0)
(0.999025 0.0102051 0)
(0.995096 -0.00474512 0)
(1.00282 0.0038097 0)
(0.995482 -0.0043273 0)
(1.00232 0.00321195 0)
(0.997753 -0.00376752 0)
(1.00237 0.00269221 0)
(0.999185 -0.00331734 0)
(1.00214 0.00221081 0)
(1.00011 -0.00290781 0)
(1.00195 0.00178717 0)
(1.00076 -0.0024941 0)
(1.00187 0.00140997 0)
(1.00122 -0.00210243 0)
(1.00182 0.00104543 0)
(1.00149 -0.00174662 0)
(1.00174 0.000686786 0)
(1.00157 -0.00141288 0)
(1.00158 0.000354346 0)
(1.00148 -0.0010815 0)
(1.00132 7.7187e-05 0)
(1.00119 -0.000733612 0)
(1.00091 -0.000123066 0)
(1.00064 -0.000382751 0)
(1.00022 -0.000159184 0)
(0.999751 -4.74718e-06 0)
(0.999113 0.000184128 0)
(0.998426 0.000399118 0)
(0.997612 0.00203785 0)
(0.997208 0.00231858 0)
(0.996701 0.010016 0)
(0.997518 -0.00467762 0)
(1.00035 0.00373303 0)
(0.996722 -0.00425969 0)
(1.00003 0.00313271 0)
(0.998054 -0.00370247 0)
(1.00027 0.00260782 0)
(0.99883 -0.00324376 0)
(1.0002 0.00212379 0)
(0.999293 -0.00282484 0)
(1.00011 0.00169281 0)
(0.999617 -0.00240202 0)
(1.00008 0.00130581 0)
(0.999848 -0.00199876 0)
(1.00006 0.000930884 0)
(0.99997 -0.00162805 0)
(0.999985 0.000561769 0)
(0.999951 -0.00127748 0)
(0.999831 0.000220643 0)
(0.999788 -0.000929011 0)
(0.999568 -6.07848e-05 0)
(0.999449 -0.000558752 0)
(0.999129 -0.000263874 0)
(0.998873 -0.00017034 0)
(0.99842 -0.000312511 0)
(0.997958 0.000309536 0)
(0.997299 -0.000112083 0)
(0.99666 0.00137974 0)
(0.995853 0.000756488 0)
(0.995631 0.00391265 0)
(0.995304 0.00263305 0)
(0.998797 -0.00460262 0)
(0.999064 0.00365701 0)
(0.997371 -0.00418311 0)
(0.99884 0.00305394 0)
(0.998195 -0.0036291 0)
(0.99915 0.00252088 0)
(0.998624 -0.00316242 0)
(0.999142 0.00203334 0)
(0.998837 -0.0027345 0)
(0.999084 0.00159585 0)
(0.998967 -0.00230472 0)
(0.99906 0.00120268 0)
(0.999052 -0.00189582 0)
(0.999029 0.000825535 0)
(0.999068 -0.00152189 0)
(0.998954 0.000461673 0)
(0.998976 -0.00117455 0)
(0.998792 0.000137656 0)
(0.998758 -0.000839362 0)
(0.998514 -0.000110775 0)
(0.998375 -0.000509308 0)
(0.998055 -0.000245787 0)
(0.997764 -0.000171046 0)
(0.997326 -0.00020831 0)
(0.996823 0.00028143 0)
(0.996222 0.000129343 0)
(0.995502 0.00136268 0)
(0.994846 0.00100656 0)
(0.994304 0.00402492 0)
(0.994764 0.00165024 0)
(0.999447 -0.00452059 0)
(0.998419 0.00357595 0)
(0.997711 -0.00409667 0)
(0.998242 0.00297031 0)
(0.998276 -0.00354553 0)
(0.998582 0.00242619 0)
(0.998527 -0.00307007 0)
(0.998602 0.00193295 0)
(0.998608 -0.00263038 0)
(0.998553 0.00148578 0)
(0.998628 -0.00218942 0)
(0.998523 0.0010811 0)
(0.998625 -0.0017681 0)
(0.998482 0.000693367 0)
(0.998577 -0.00138128 0)
(0.998397 0.000323014 0)
(0.99844 -0.00102262 0)
(0.998224 -1.36749e-06 0)
(0.99819 -0.000677145 0)
(0.997929 -0.000244136 0)
(0.997783 -0.000348196 0)
(0.997449 -0.000349453 0)
(0.997154 -1.41703e-05 0)
(0.996701 -0.000271846 0)
(0.996208 0.00042213 0)
(0.995596 0.000207273 0)
(0.994913 0.00127571 0)
(0.994301 0.00164673 0)
(0.993781 0.00395049 0)
(0.994734 0.00611061 0)
(0.999767 -0.00443185 0)
(0.998109 0.00348684 0)
(0.997886 -0.00400003 0)
(0.997957 0.00287985 0)
(0.998321 -0.00345225 0)
(0.998311 0.00232384 0)
(0.998485 -0.00296942 0)
(0.998347 0.0018264 0)
(0.998498 -0.00252012 0)
(0.998304 0.00137363 0)
(0.99846 -0.00207317 0)
(0.998269 0.000964786 0)
(0.998407 -0.00164964 0)
(0.998221 0.000580111 0)
(0.998322 -0.00126748 0)
(0.998131 0.000224471 0)
(0.99816 -0.000923792 0)
(0.997952 -6.989e-05 0)
(0.997891 -0.000611585 0)
(0.997649 -0.000258993 0)
(0.997471 -0.000329241 0)
(0.997158 -0.000284215 0)
(0.996832 -4.68016e-05 0)
(0.996401 -6.29242e-05 0)
(0.995894 0.000260751 0)
(0.995303 0.000624911 0)
(0.994657 0.00099227 0)
(0.994124 0.0024391 0)
(0.993855 0.00364581 0)
(0.994744 0.0102984 0)
(0.999921 -0.00433624 0)
(0.997968 0.0033874 0)
(0.997977 -0.00389174 0)
(0.997832 0.00277977 0)
(0.998348 -0.00334674 0)
(0.998194 0.00220975 0)
(0.998469 -0.00285579 0)
(0.99824 0.00170679 0)
(0.998451 -0.00239508 0)
(0.998202 0.00124681 0)
(0.998382 -0.00193948 0)
(0.998165 0.000831385 0)
(0.998303 -0.00151085 0)
(0.998112 0.000446209 0)
(0.9982 -0.00112831 0)
(0.998018 0.000100159 0)
(0.998028 -0.000792182 0)
(0.997835 -0.000173473 0)
(0.997753 -0.000503841 0)
(0.997525 -0.000321557 0)
(0.997333 -0.000246355 0)
(0.997026 -0.000301745 0)
(0.996702 3.11195e-05 0)
(0.996257 -4.39774e-05 0)
(0.995788 0.00045616 0)
(0.995178 0.000629243 0)
(0.994623 0.00149015 0)
(0.994122 0.00236699 0)
(0.994376 0.00398544 0)
(0.99506 0.00644108 0)
(0.999998 -0.00423376 0)
(0.997905 0.0032766 0)
(0.99803 -0.00377131 0)
(0.997779 0.00266955 0)
(0.998372 -0.00322942 0)
(0.998146 0.00208484 0)
(0.998473 -0.0027319 0)
(0.998199 0.00157808 0)
(0.99844 -0.00226191 0)
(0.998165 0.0011141 0)
(0.998356 -0.00180185 0)
(0.998129 0.000698031 0)
(0.998262 -0.0013749 0)
(0.998077 0.000320718 0)
(0.998148 -0.00100249 0)
(0.997984 -2.46047e-06 0)
(0.997968 -0.000686221 0)
(0.997802 -0.000241018 0)
(0.99769 -0.000430651 0)
(0.997494 -0.000338023 0)
(0.997268 -0.000206491 0)
(0.996998 -0.000271251 0)
(0.996639 6.69814e-05 0)
(0.996249 -4.5609e-05 0)
(0.995739 0.000694664 0)
(0.99522 0.000569017 0)
(0.994641 0.00206368 0)
(0.994247 0.00226644 0)
(0.994194 0.00460133 0)
(0.995514 0.00287098 0)
(1.00004 -0.00412398 0)
(0.997876 0.00315303 0)
(0.998069 -0.00363726 0)
(0.997754 0.00254715 0)
(0.998398 -0.00309833 0)
(0.998122 0.00194629 0)
(0.998493 -0.00259457 0)
(0.998177 0.00143536 0)
(0.998455 -0.00211499 0)
(0.998144 0.000968226 0)
(0.998367 -0.00165224 0)
(0.998106 0.000553574 0)
(0.99827 -0.00122961 0)
(0.99805 0.000189008 0)
(0.998154 -0.000876267 0)
(0.997955 -0.000104587 0)
(0.997976 -0.000595157 0)
(0.997769 -0.000293732 0)
(0.997704 -0.000383206 0)
(0.997457 -0.000326521 0)
(0.997291 -0.000204637 0)
(0.996962 -0.000182886 0)
(0.996671 2.71484e-05 0)
(0.996235 0.000194395 0)
(0.995798 0.00053849 0)
(0.995261 0.00103098 0)
(0.994785 0.00181067 0)
(0.994398 0.00306893 0)
(0.994375 0.00481396 0)
(0.996175 0.00718055 0)
(1.00007 -0.00400737 0)
(0.997867 0.00301715 0)
(0.998096 -0.00349045 0)
(0.997748 0.00241479 0)
(0.998418 -0.00295649 0)
(0.998116 0.00179929 0)
(0.99851 -0.00245035 0)
(0.998174 0.00128882 0)
(0.998469 -0.0019674 0)
(0.998143 0.000827061 0)
(0.998377 -0.00151083 0)
(0.998106 0.00042355 0)
(0.998277 -0.00110568 0)
(0.998051 8.94173e-05 0)
(0.99816 -0.000791496 0)
(0.997955 -0.000155102 0)
(0.997982 -0.000571682 0)
(0.99777 -0.000270714 0)
(0.997715 -0.000422838 0)
(0.99746 -0.000224358 0)
(0.997309 -0.000299103 0)
(0.99697 6.46256e-07 0)
(0.996707 -0.0001289 0)
(0.996256 0.000554419 0)
(0.995871 0.000288495 0)
(0.99534 0.00162965 0)
(0.994961 0.00144781 0)
(0.994662 0.00391512 0)
(0.994889 0.00490557 0)
(0.996391 0.0117272 0)
(1.00008 -0.00388209 0)
(0.997876 0.00286529 0)
(0.998112 -0.00332689 0)
(0.99776 0.00226678 0)
(0.998428 -0.00279739 0)
(0.998131 0.00163531 0)
(0.998517 -0.00228946 0)
(0.998192 0.00112632 0)
(0.998473 -0.00180402 0)
(0.998163 0.000670979 0)
(0.99838 -0.0013527 0)
(0.998127 0.000279917 0)
(0.998278 -0.000968469 0)
(0.998071 -2.26638e-05 0)
(0.998162 -0.000679455 0)
(0.997973 -0.00022611 0)
(0.99799 -0.000499142 0)
(0.997785 -0.000297107 0)
(0.997731 -0.000371179 0)
(0.997474 -0.00023367 0)
(0.997337 -0.000220661 0)
(0.996986 -3.59036e-05 0)
(0.99676 6.49485e-05 0)
(0.996292 0.00040451 0)
(0.99597 0.000731538 0)
(0.995431 0.00142517 0)
(0.995165 0.0022342 0)
(0.994968 0.00351233 0)
(0.995766 0.00496863 0)
(0.996812 0.00697633 0)
(1.00008 -0.00374942 0)
(0.997893 0.00269964 0)
(0.998126 -0.00314973 0)
(0.997781 0.0021065 0)
(0.998436 -0.00262682 0)
(0.998156 0.00145949 0)
(0.998524 -0.00212036 0)
(0.998221 0.000954021 0)
(0.998476 -0.00163571 0)
(0.998198 0.000508593 0)
(0.998379 -0.00119783 0)
(0.998165 0.000142017 0)
(0.998275 -0.000868275 0)
(0.998111 -0.000120907 0)
(0.998158 -0.000625843 0)
(0.998013 -0.000266972 0)
(0.997986 -0.000481793 0)
(0.997828 -0.000291564 0)
(0.997729 -0.000362439 0)
(0.997524 -0.000214868 0)
(0.997338 -0.000174107 0)
(0.997054 -6.08803e-05 0)
(0.99677 0.000236486 0)
(0.996398 0.00027236 0)
(0.996026 0.00112679 0)
(0.995622 0.00127338 0)
(0.995309 0.00295518 0)
(0.995177 0.00330498 0)
(0.995517 0.00513072 0)
(0.997344 0.00276209 0)
(1.00009 -0.00361434 0)
(0.997906 0.00252826 0)
(0.99815 -0.00296707 0)
(0.997792 0.0019502 0)
(0.998458 -0.00245925 0)
(0.998166 0.00129885 0)
(0.99855 -0.00196791 0)
(0.998231 0.000814867 0)
(0.998504 -0.00150371 0)
(0.998206 0.000404204 0)
(0.998411 -0.00110221 0)
(0.998168 8.9058e-05 0)
(0.998311 -0.0007811 0)
(0.99811 -0.000137399 0)
(0.9982 -0.000601677 0)
(0.998008 -0.00022955 0)
(0.998036 -0.000506528 0)
(0.997821 -0.000204694 0)
(0.997787 -0.000419317 0)
(0.99752 -7.58367e-05 0)
(0.997401 -0.000246519 0)
(0.997065 0.00015519 0)
(0.996849 8.77974e-05 0)
(0.996452 0.000639944 0)
(0.996164 0.000900742 0)
(0.995763 0.00181042 0)
(0.995551 0.00265977 0)
(0.995398 0.00425946 0)
(0.995699 0.00578971 0)
(0.998145 0.00769923 0)
(1.00009 -0.00345294 0)
(0.997934 0.00231197 0)
(0.998161 -0.0027379 0)
(0.997815 0.00173436 0)
(0.998466 -0.0022303 0)
(0.99819 0.0010587 0)
(0.998562 -0.00173639 0)
(0.998256 0.000573848 0)
(0.998517 -0.00127117 0)
(0.998231 0.000173058 0)
(0.998425 -0.000894537 0)
(0.998195 -0.000114596 0)
(0.998326 -0.000618326 0)
(0.998132 -0.000285238 0)
(0.99822 -0.000490313 0)
(0.998027 -0.00031351 0)
(0.99806 -0.000456083 0)
(0.997842 -0.00022413 0)
(0.997817 -0.000442641 0)
(0.997548 -9.12526e-06 0)
(0.997442 -0.000372803 0)
(0.997103 0.000421782 0)
(0.996914 -0.000134942 0)
(0.996527 0.00120646 0)
(0.996289 0.000553816 0)
(0.995929 0.00255073 0)
(0.995823 0.00214259 0)
(0.995786 0.00530608 0)
(0.996276 0.00625118 0)
(0.998042 0.0129863 0)
(1.00007 -0.00332406 0)
(0.997991 0.0021446 0)
(0.998152 -0.00256086 0)
(0.997869 0.00160185 0)
(0.998451 -0.002091 0)
(0.998246 0.000944175 0)
(0.998551 -0.00164489 0)
(0.998313 0.000514721 0)
(0.998508 -0.00123753 0)
(0.998286 0.000188181 0)
(0.998419 -0.000941726 0)
(0.998245 -2.68876e-05 0)
(0.998327 -0.000787765 0)
(0.998177 -9.8932e-05 0)
(0.998229 -0.000720597 0)
(0.998066 -7.90319e-05 0)
(0.998078 -0.000688123 0)
(0.997875 -7.19146e-06 0)
(0.997847 -0.000612413 0)
(0.99758 0.000120707 0)
(0.997497 -0.000411898 0)
(0.997147 0.000412321 0)
(0.99701 8.06977e-05 0)
(0.996606 0.00104598 0)
(0.996437 0.00103772 0)
(0.996087 0.00236733 0)
(0.996121 0.0030006 0)
(0.996261 0.00476293 0)
(0.997364 0.0057774 0)
(0.998324 0.00707607 0)
(1.00004 -0.00312571 0)
(0.99806 0.00186663 0)
(0.998145 -0.00227129 0)
(0.997932 0.00132486 0)
(0.998438 -0.00179639 0)
(0.998313 0.000641081 0)
(0.998543 -0.00134778 0)
(0.998383 0.000214228 0)
(0.9985 -0.00092896 0)
(0.998356 -9.66429e-05 0)
(0.998412 -0.000612982 0)
(0.998314 -0.000316738 0)
(0.998323 -0.000409332 0)
(0.998245 -0.000434023 0)
(0.998224 -0.000265547 0)
(0.998137 -0.000515022 0)
(0.998071 -0.000101128 0)
(0.997956 -0.000572728 0)
(0.997837 0.000157806 0)
(0.997679 -0.000590703 0)
(0.997489 0.000539462 0)
(0.997279 -0.000489994 0)
(0.997023 0.00118823 0)
(0.996786 -6.20161e-05 0)
(0.996535 0.00232024 0)
(0.996392 0.00123713 0)
(0.996313 0.00446985 0)
(0.996445 0.00354453 0)
(0.996777 0.0064967 0)
(0.998826 0.00252409 0)
(1.00003 -0.00299327 0)
(0.99811 0.00168628 0)
(0.998164 -0.00208581 0)
(0.99797 0.00119094 0)
(0.998457 -0.00166136 0)
(0.998348 0.000536377 0)
(0.998573 -0.00128438 0)
(0.998416 0.00017635 0)
(0.998537 -0.00096676 0)
(0.998385 -2.17483e-05 0)
(0.998455 -0.000797137 0)
(0.998336 -9.25504e-05 0)
(0.998372 -0.00075915 0)
(0.998262 -6.0548e-05 0)
(0.998278 -0.000783668 0)
(0.998154 3.92979e-05 0)
(0.998129 -0.000826792 0)
(0.997977 0.000220593 0)
(0.997902 -0.000844054 0)
(0.997704 0.000584623 0)
(0.997568 -0.000766557 0)
(0.997323 0.00112454 0)
(0.997133 -0.000464512 0)
(0.996884 0.00205627 0)
(0.996726 0.000385999 0)
(0.996593 0.00352616 0)
(0.996641 0.00200172 0)
(0.996794 0.00622255 0)
(0.997184 0.00608268 0)
(0.999039 0.0135996 0)
(1.00001 -0.00279051 0)
(0.998186 0.00140648 0)
(0.998167 -0.00179762 0)
(0.998034 0.000936931 0)
(0.998452 -0.00139185 0)
(0.998414 0.000288177 0)
(0.998576 -0.0010556 0)
(0.998482 -3.85127e-05 0)
(0.998547 -0.000784238 0)
(0.998444 -0.000184292 0)
(0.998472 -0.00066465 0)
(0.998389 -0.000219083 0)
(0.998396 -0.000622556 0)
(0.998309 -0.000211424 0)
(0.998309 -0.000591454 0)
(0.998195 -0.000208573 0)
(0.998172 -0.000526803 0)
(0.998011 -0.000180857 0)
(0.997972 -0.000403465 0)
(0.997743 -1.96938e-05 0)
(0.997663 -7.39972e-05 0)
(0.997375 0.000403228 0)
(0.997282 0.000495985 0)
(0.996984 0.00119673 0)
(0.996922 0.00156445 0)
(0.996761 0.00265814 0)
(0.997007 0.00344218 0)
(0.997428 0.0048162 0)
(0.998668 0.00580241 0)
(0.999247 0.00720069 0)
(1.00001 -0.00264048 0)
(0.998261 0.00118752 0)
(0.998186 -0.00158009 0)
(0.998098 0.000769241 0)
(0.998459 -0.00121818 0)
(0.998482 0.00015363 0)
(0.998589 -0.000917 0)
(0.998555 -0.000124414 0)
(0.998562 -0.000678749 0)
(0.998517 -0.000232182 0)
(0.998486 -0.000557852 0)
(0.998464 -0.000281203 0)
(0.998404 -0.000455876 0)
(0.998391 -0.00033733 0)
(0.998308 -0.000279946 0)
(0.998289 -0.000447397 0)
(0.998162 -2.6293e-05 0)
(0.998121 -0.000581464 0)
(0.997954 0.000368065 0)
(0.997881 -0.000715348 0)
(0.997667 0.000938369 0)
(0.997546 -0.00066605 0)
(0.99731 0.00178074 0)
(0.99721 -0.000215299 0)
(0.997064 0.00309365 0)
(0.997112 0.00121736 0)
(0.997176 0.00536321 0)
(0.997448 0.00335214 0)
(0.997802 0.00648005 0)
(0.999765 0.000920044 0)
(1.00005 -0.00240504 0)
(0.998279 0.000867768 0)
(0.998269 -0.0012733 0)
(0.998093 0.000493777 0)
(0.998536 -0.000956825 0)
(0.998476 -9.45589e-05 0)
(0.998679 -0.000743771 0)
(0.998546 -0.000279431 0)
(0.998659 -0.00061037 0)
(0.998504 -0.000261332 0)
(0.998586 -0.000640164 0)
(0.998451 -0.000164622 0)
(0.998506 -0.000750112 0)
(0.998384 -1.072e-05 0)
(0.998409 -0.000913039 0)
(0.998287 0.000245107 0)
(0.998262 -0.00105323 0)
(0.998134 0.0005683 0)
(0.998052 -0.00110432 0)
(0.997909 0.000967095 0)
(0.997763 -0.000978853 0)
(0.997612 0.00148743 0)
(0.997449 -0.000486416 0)
(0.997345 0.00231917 0)
(0.9973 0.000510182 0)
(0.99738 0.00373301 0)
(0.997578 0.00249126 0)
(0.997824 0.00688935 0)
(0.998105 0.00734432 0)
(0.999889 0.0135388 0)
(1.00006 -0.00230706 0)
(0.998344 0.000732907 0)
(0.998314 -0.00114217 0)
(0.998131 0.000441805 0)
(0.99857 -0.000896918 0)
(0.998512 -0.000114125 0)
(0.998728 -0.000790476 0)
(0.99858 -0.000235946 0)
(0.998718 -0.000698481 0)
(0.998528 -0.000184498 0)
(0.998652 -0.000724379 0)
(0.998466 -9.54747e-05 0)
(0.99858 -0.000805282 0)
(0.998383 4.32172e-05 0)
(0.998501 -0.000938866 0)
(0.998279 0.000294872 0)
(0.998371 -0.00106889 0)
(0.99812 0.0006323 0)
(0.998184 -0.00114525 0)
(0.997908 0.00110525 0)
(0.997929 -0.00103232 0)
(0.997646 0.00177644 0)
(0.997645 -0.00058942 0)
(0.997431 0.00271792 0)
(0.997544 0.000318925 0)
(0.997598 0.00396593 0)
(0.99813 0.00191827 0)
(0.998775 0.00660085 0)
(0.999792 0.00668727 0)
(0.999314 0.0134894 0)
(1.00002 -0.00203065 0)
(0.998478 0.000348057 0)
(0.998313 -0.000742753 0)
(0.998236 0.000105596 0)
(0.998555 -0.000470804 0)
(0.998614 -0.000447833 0)
(0.998728 -0.000375013 0)
(0.998685 -0.000610339 0)
(0.998723 -0.000225026 0)
(0.998631 -0.000677357 0)
(0.998656 -9.14714e-05 0)
(0.99857 -0.000786402 0)
(0.998586 7.44715e-05 0)
(0.998493 -0.000913386 0)
(0.99851 0.000302354 0)
(0.998388 -0.00105142 0)
(0.998385 0.000560034 0)
(0.998234 -0.00111445 0)
(0.99821 0.000883779 0)
(0.998031 -0.00102331 0)
(0.997976 0.00131345 0)
(0.997791 -0.000676101 0)
(0.997744 0.00196498 0)
(0.997628 9.992e-05 0)
(0.997699 0.00304063 0)
(0.997847 0.00121651 0)
(0.998386 0.00409942 0)
(0.999199 0.00166621 0)
(1.00026 0.00348698 0)
(0.999804 0.000108517 0)
(0.999993 -0.00189823 0)
(0.998603 0.000164507 0)
(0.998342 -0.000713237 0)
(0.998327 9.35519e-05 0)
(0.998571 -0.000641011 0)
(0.998696 -0.000305711 0)
(0.998759 -0.000658698 0)
(0.99877 -0.000361872 0)
(0.998757 -0.000564382 0)
(0.998717 -0.000367521 0)
(0.998687 -0.000465028 0)
(0.998659 -0.000435352 0)
(0.998612 -0.000335152 0)
(0.998587 -0.000537567 0)
(0.998529 -0.000162702 0)
(0.998492 -0.000666255 0)
(0.998409 9.11048e-05 0)
(0.998351 -0.000709134 0)
(0.998248 0.000438172 0)
(0.998166 -0.000578143 0)
(0.998045 0.000929398 0)
(0.997959 -0.000133463 0)
(0.997866 0.00167352 0)
(0.997855 0.000723237 0)
(0.997871 0.00272882 0)
(0.99804 0.00183569 0)
(0.998296 0.00345354 0)
(0.99874 0.00154534 0)
(0.999337 0.00187701 0)
(1.00154 0.000164252 0)
(1.00001 -0.00174159 0)
(0.99868 -4.78715e-05 0)
(0.998425 -0.000525542 0)
(0.99836 -3.71625e-05 0)
(0.99864 -0.000250699 0)
(0.998731 -0.000533036 0)
(0.998843 -0.000345984 0)
(0.998811 -0.000618629 0)
(0.998844 -0.000283313 0)
(0.998758 -0.000610242 0)
(0.99877 -0.000220385 0)
(0.998702 -0.000597426 0)
(0.998694 -0.000167512 0)
(0.998634 -0.000561621 0)
(0.998611 -0.000124873 0)
(0.998547 -0.000496965 0)
(0.998494 -6.86008e-05 0)
(0.998418 -0.000365208 0)
(0.998347 8.9889e-05 0)
(0.998255 -7.98003e-05 0)
(0.998176 0.000466464 0)
(0.998085 0.000464139 0)
(0.998046 0.0011552 0)
(0.998019 0.00129336 0)
(0.998086 0.00204535 0)
(0.998178 0.00238003 0)
(0.9984 0.00319676 0)
(0.998874 0.00384996 0)
(1 0.00489983 0)
(1.00377 0.00610851 0)
(1.00001 -0.0014411 0)
(0.998799 -0.000377656 0)
(0.998492 -0.00031363 0)
(0.998456 -0.00016861 0)
(0.998674 -0.000258046 0)
(0.998794 -0.000434279 0)
(0.998897 -0.000503032 0)
(0.998884 -0.000397788 0)
(0.998904 -0.000610629 0)
(0.998832 -0.000229084 0)
(0.998833 -0.000722002 0)
(0.998775 -2.13144e-05 0)
(0.998761 -0.000869136 0)
(0.998704 0.000213786 0)
(0.998682 -0.00102379 0)
(0.998613 0.000486191 0)
(0.998573 -0.00109844 0)
(0.998493 0.000777837 0)
(0.998442 -0.000981101 0)
(0.998359 0.00117389 0)
(0.9983 -0.000569753 0)
(0.998235 0.00176432 0)
(0.998198 0.000145308 0)
(0.998205 0.00248033 0)
(0.998294 0.000997359 0)
(0.998499 0.00349996 0)
(0.998874 0.00249725 0)
(0.999418 0.00636528 0)
(1.00021 0.00741774 0)
(1.00286 0.0124416 0)
(0.999988 -0.00156236 0)
(0.998919 -0.000263327 0)
(0.998559 -0.000589476 0)
(0.998514 0.000120745 0)
(0.998734 -0.000451478 0)
(0.998856 -0.000218666 0)
(0.998967 -0.000652489 0)
(0.998946 -0.000303475 0)
(0.998987 -0.000676344 0)
(0.998887 -0.000259102 0)
(0.998925 -0.000663108 0)
(0.99882 -0.000203173 0)
(0.998861 -0.000662804 0)
(0.998744 -0.000155389 0)
(0.998793 -0.000654385 0)
(0.998663 -8.53879e-05 0)
(0.998691 -0.000553338 0)
(0.998564 8.88415e-05 0)
(0.998576 -0.000258034 0)
(0.998463 0.000463774 0)
(0.998462 0.00028066 0)
(0.998372 0.00108219 0)
(0.998381 0.0010407 0)
(0.99836 0.00192262 0)
(0.99853 0.00202276 0)
(0.998738 0.00293162 0)
(0.999475 0.00309117 0)
(1.00064 0.003832 0)
(1.00227 0.00394378 0)
(1.00292 0.00509467 0)
(0.999957 -0.000932288 0)
(0.999081 -0.000945711 0)
(0.998617 -1.29191e-05 0)
(0.99867 -0.000475831 0)
(0.998733 0.00026984 0)
(0.998973 -0.000890077 0)
(0.998982 0.000115511 0)
(0.999077 -0.00111512 0)
(0.999006 0.000215998 0)
(0.999026 -0.00119814 0)
(0.998942 0.000397349 0)
(0.998963 -0.00127542 0)
(0.998873 0.000579637 0)
(0.998889 -0.0013433 0)
(0.998803 0.000761384 0)
(0.99881 -0.00136746 0)
(0.998719 0.000949038 0)
(0.998727 -0.00124979 0)
(0.998639 0.00120477 0)
(0.998649 -0.000908025 0)
(0.998568 0.00166645 0)
(0.998591 -0.00025253 0)
(0.998548 0.00242731 0)
(0.998641 0.000799437 0)
(0.998724 0.0035075 0)
(0.998984 0.00183498 0)
(0.99929 0.00412981 0)
(0.999814 0.00131632 0)
(1.00074 0.00210483 0)
(1.00409 -0.0004605 0)
(0.999992 -0.00146559 0)
(0.999144 -0.000247895 0)
(0.998757 -0.000856379 0)
(0.998687 0.000477755 0)
(0.998844 -0.000857952 0)
(0.99899 0.000350296 0)
(0.999092 -0.00113927 0)
(0.99911 0.000231139 0)
(0.999123 -0.00119214 0)
(0.999067 0.000240132 0)
(0.999057 -0.00112113 0)
(0.999006 0.0002894 0)
(0.998989 -0.00102462 0)
(0.998937 0.000362746 0)
(0.998924 -0.000925071 0)
(0.998865 0.00045342 0)
(0.998846 -0.000783467 0)
(0.998789 0.000606911 0)
(0.998779 -0.000498523 0)
(0.998745 0.000943062 0)
(0.998749 1.75336e-05 0)
(0.99875 0.00156109 0)
(0.998795 0.000868129 0)
(0.998855 0.00253283 0)
(0.998969 0.00201845 0)
(0.99912 0.00362105 0)
(0.999407 0.00302262 0)
(1.00011 0.00442073 0)
(1.00183 0.00446908 0)
(1.00623 0.00768612 0)
(1 -0.000549098 0)
(0.999243 -0.0013353 0)
(0.998881 -8.88449e-06 0)
(0.998778 -0.000582067 0)
(0.998914 0.000466971 0)
(0.99905 -0.000848381 0)
(0.999161 0.000287547 0)
(0.99918 -0.00106646 0)
(0.9992 0.000219672 0)
(0.999147 -0.00111416 0)
(0.99914 0.000282857 0)
(0.999091 -0.00105325 0)
(0.999075 0.000367247 0)
(0.99902 -0.000956838 0)
(0.999008 0.000432015 0)
(0.998953 -0.000839401 0)
(0.998939 0.000533264 0)
(0.998906 -0.000632501 0)
(0.998905 0.000797963 0)
(0.998894 -0.000229225 0)
(0.998915 0.0012906 0)
(0.998944 0.000462629 0)
(0.999016 0.00204942 0)
(0.999115 0.00142731 0)
(0.999261 0.00314012 0)
(0.999453 0.00293551 0)
(0.999767 0.00504289 0)
(1.0005 0.00527196 0)
(1.00225 0.00680721 0)
(1.00673 0.00521975 0)
(1 -0.00113612 0)
(0.999351 -0.00022135 0)
(0.999007 -0.00114275 0)
(0.998891 0.000570469 0)
(0.998985 -0.000999188 0)
(0.999124 0.000733409 0)
(0.999232 -0.00143718 0)
(0.999258 0.000628655 0)
(0.999281 -0.00169233 0)
(0.999234 0.000688645 0)
(0.999228 -0.00167224 0)
(0.99918 0.000809554 0)
(0.999164 -0.00155162 0)
(0.99911 0.000901437 0)
(0.999103 -0.00137034 0)
(0.99905 0.00100349 0)
(0.999044 -0.00109451 0)
(0.999015 0.0011707 0)
(0.999028 -0.000739202 0)
(0.99904 0.00145255 0)
(0.999086 -0.000199548 0)
(0.999138 0.00205055 0)
(0.999234 0.000642616 0)
(0.99938 0.00293232 0)
(0.999628 0.00172413 0)
(0.999984 0.0042807 0)
(1.00044 0.00400199 0)
(1.00099 0.00821412 0)
(1.0019 0.00962309 0)
(1.00519 0.0137406 0)
(0.999934 -0.000615769 0)
(0.999437 -0.00104228 0)
(0.999037 -0.000379318 0)
(0.99898 -0.000347819 0)
(0.999018 1.70846e-05 0)
(0.999173 -0.000293393 0)
(0.999244 -0.000249884 0)
(0.999314 -0.000550568 0)
(0.999316 -0.000463852 0)
(0.999312 -0.000559986 0)
(0.999277 -0.000410052 0)
(0.999268 -0.000450256 0)
(0.999216 -0.000299096 0)
(0.999206 -0.000330783 0)
(0.99916 -0.000160224 0)
(0.999158 -0.000182319 0)
(0.999112 8.64196e-05 0)
(0.999134 7.27516e-05 0)
(0.999116 0.000437862 0)
(0.999179 0.000481449 0)
(0.99923 0.000938921 0)
(0.999334 0.00111173 0)
(0.999446 0.00175998 0)
(0.999611 0.00218166 0)
(0.999895 0.00296786 0)
(1.00045 0.00329817 0)
(1.00151 0.00383454 0)
(1.003 0.00390266 0)
(1.00481 0.00422272 0)
(1.00451 0.00364911 0)
(0.99985 -0.00052007 0)
(0.999697 -0.000898626 0)
(0.999105 -0.000508618 0)
(0.999245 -0.000272903 0)
(0.999019 -0.000103207 0)
(0.999386 -0.000241458 0)
(0.999234 -0.000298031 0)
(0.999513 -0.000452109 0)
(0.999326 -0.000422641 0)
(0.999517 -0.000508777 0)
(0.999302 -0.000322745 0)
(0.999464 -0.000451554 0)
(0.999251 -0.000165327 0)
(0.999393 -0.000342864 0)
(0.999206 1.25907e-05 0)
(0.999352 -0.000188027 0)
(0.999184 0.000225827 0)
(0.999344 6.65964e-05 0)
(0.999224 0.000536525 0)
(0.999415 0.000538222 0)
(0.999367 0.00101929 0)
(0.999624 0.00108923 0)
(0.999692 0.0016138 0)
(1.00003 0.00177002 0)
(1.00015 0.00238992 0)
(1.00052 0.00275094 0)
(1.00076 0.00374964 0)
(1.00125 0.00437602 0)
(1.00169 0.00545118 0)
(1.00474 0.0059587 0)
(0.999921 -0.00087673 0)
(0.999595 -0.000375034 0)
(0.999241 -0.000943692 0)
(0.999184 0.000145108 0)
(0.999156 -0.000586023 0)
(0.999301 0.000262926 0)
(0.99935 -0.000793524 0)
(0.999449 1.14338e-05 0)
(0.999444 -0.000990067 0)
(0.999483 -5.98759e-05 0)
(0.999424 -0.000917947 0)
(0.999452 3.59358e-05 0)
(0.999375 -0.000741393 0)
(0.999398 0.000197217 0)
(0.999332 -0.000520297 0)
(0.999364 0.00040454 0)
(0.999314 -0.000242868 0)
(0.999371 0.000696116 0)