/*--------------------------------*- C++ -*----------------------------------*\
| =========                 |                                                 |
| \\      /  F ield         | OpenFOAM: The Open Source CFD Toolbox           |
|  \\    /   O peration     | Version:  v2006                                 |
|   \\  /    A nd           | Website:  www.openfoam.com                      |
|    \\/     M anipulation  |                                                 |
\*---------------------------------------------------------------------------*/
FoamFile
{
    version     2.0;
    format      ascii;
    class       volScalarField;
    location    "0.5";
    object      p;
}
// * * * * * * * * * * * * * * * * * * * * * * * * * * * * * * * * * * * * * //

dimensions      [0 2 -2 0 0 0 0];


internalField   nonuniform List<scalar> 
26400
(
4.60339e-10
0.00224492
0.00218107
0.00236886
0.0018336
0.00217288
0.00191277
0.00222452
0.00194207
0.00224733
0.00212007
0.00237045
0.00212287
0.00237985
0.0022527
0.00256866
0.00241916
0.00267228
0.00260785
0.0029475
0.00293761
0.00332149
0.0034049
0.00398703
0.00432691
0.00524684
0.00598791
0.00752332
0.00920042
0.0118193
4.08281e-07
0.00224478
0.00218148
0.00236913
0.00183459
0.00217297
0.00191312
0.00222394
0.0019426
0.00224717
0.00212175
0.00237101
0.00212488
0.00237975
0.00225432
0.00256689
0.00242028
0.00266928
0.00260924
0.00294394
0.00294037
0.00331641
0.00341018
0.00397604
0.00433768
0.00521195
0.00601184
0.0073783
0.00919222
0.0111386
1.47032e-06
0.00224473
0.00218244
0.00236976
0.00183613
0.00217269
0.00191398
0.00222302
0.00194403
0.0022472
0.00212469
0.00237173
0.00212798
0.00237895
0.00225702
0.00256392
0.00242265
0.00266506
0.00261227
0.00293943
0.00294477
0.00331076
0.00341643
0.00396775
0.00434737
0.00519573
0.00601124
0.00730369
0.00907872
0.0104828
3.71684e-06
0.00224526
0.00218375
0.00237077
0.00183795
0.0021724
0.00191537
0.0022222
0.00194588
0.00224744
0.002128
0.00237243
0.00213149
0.00237789
0.00226038
0.00256062
0.00242569
0.00266032
0.00261599
0.0029341
0.00294971
0.00330333
0.00342302
0.00395482
0.00435591
0.00516621
0.00600649
0.00717622
0.00885627
0.00993312
7.69647e-06
0.00224624
0.00218531
0.00237202
0.00184007
0.00217209
0.00191722
0.00222126
0.00194784
0.00224754
0.00213147
0.00237291
0.0021354
0.00237644
0.00226426
0.00255672
0.00242902
0.00265468
0.00261983
0.00292767
0.00295456
0.00329339
0.00342887
0.00394168
0.00436031
0.00514064
0.00597978
0.00708813
0.0085076
0.00949035
1.3602e-05
0.00224728
0.00218707
0.00237322
0.00184245
0.00217148
0.00191938
0.00221993
0.00194977
0.00224724
0.00213506
0.00237286
0.00213964
0.00237433
0.00226856
0.00255205
0.00243257
0.00264798
0.00262381
0.00292015
0.00295951
0.00328377
0.00343385
0.00392897
0.00436083
0.00511875
0.0059217
0.00702155
0.00811936
0.00893978
2.12649e-05
0.0022481
0.00218898
0.00237412
0.00184502
0.00217042
0.00192178
0.00221812
0.00195166
0.00224637
0.00213881
0.00237213
0.00214426
0.0023715
0.00227343
0.00254655
0.00243667
0.00264012
0.00262839
0.00291105
0.0029653
0.0032717
0.00343943
0.00391291
0.0043621
0.00508896
0.00588767
0.00684186
0.00797044
0.00852568
3.03261e-05
0.00224859
0.00219102
0.00237461
0.00184778
0.00216888
0.00192445
0.00221581
0.00195358
0.0022449
0.00214286
0.00237071
0.00214939
0.002368
0.00227899
0.00254035
0.00244136
0.00263132
0.00263361
0.00290078
0.00297109
0.00325857
0.00344384
0.00389665
0.00435864
0.00506101
0.00583576
0.00667503
0.00765537
0.00808376
4.0415e-05
0.00224874
0.00219324
0.00237472
0.00185081
0.0021669
0.00192744
0.00221302
0.00195568
0.00224287
0.00214739
0.00236864
0.00215513
0.00236386
0.00228532
0.00253351
0.00244658
0.00262165
0.00263927
0.00289039
0.00297607
0.00324587
0.00344493
0.0038836
0.00434399
0.00504276
0.00571644
0.00658504
0.00700506
0.00760449
5.12589e-05
0.00224863
0.00219568
0.00237453
0.00185418
0.00216451
0.00193081
0.00220975
0.0019581
0.00224029
0.00215258
0.00236589
0.00216161
0.00235894
0.00229255
0.00252575
0.00245262
0.00261071
0.00264554
0.00287614
0.00298171
0.00323082
0.00344667
0.00386524
0.00433317
0.00500451
0.00565915
0.00645496
0.00668859
0.00706427
6.27108e-05
0.00224831
0.00219842
0.00237411
0.00185799
0.00216172
0.00193462
0.00220597
0.00196096
0.00223714
0.00215851
0.00236243
0.00216882
0.00235327
0.00230058
0.00251716
0.00245917
0.0025989
0.00265206
0.00286313
0.00298702
0.0032145
0.00344807
0.00384226
0.00432576
0.00494569
0.00562316
0.00628712
0.00678597
0.00643776
7.47266e-05
0.00224781
0.0022015
0.00237347
0.00186232
0.00215853
0.00193892
0.00220159
0.00196433
0.00223335
0.00216531
0.00235819
0.0021768
0.00234674
0.00230948
0.0025077
0.00246609
0.0025863
0.00265866
0.00285
0.00299059
0.00319868
0.00344544
0.00382014
0.00430969
0.00488921
0.00555379
0.00612001
0.00663121
0.00568534
8.73294e-05
0.00224709
0.00220496
0.00237261
0.00186725
0.00215489
0.00194375
0.00219654
0.0019683
0.00222888
0.00217302
0.00235315
0.00218552
0.00233934
0.00231913
0.00249746
0.00247328
0.00257311
0.00266454
0.00283734
0.00299156
0.00318431
0.00343741
0.00379914
0.00428303
0.00484199
0.00544342
0.00593919
0.00617576
0.00529513
0.000100587
0.00224604
0.00220886
0.00237149
0.00187284
0.00215075
0.00194917
0.00219075
0.00197291
0.00222368
0.00218168
0.00234737
0.00219488
0.00233134
0.00232921
0.00248698
0.00248026
0.00256056
0.00266885
0.00282575
0.0029896
0.00317095
0.00342437
0.00377787
0.00424596
0.00480305
0.00532156
0.00574699
0.00548072
0.00471754
0.000114603
0.00224455
0.00221321
0.00237008
0.00187921
0.00214606
0.00195523
0.00218413
0.00197822
0.0022177
0.00219126
0.00234079
0.00220485
0.00232267
0.00233972
0.00247602
0.002487
0.00254738
0.00267256
0.00281382
0.00298695
0.00315514
0.00341145
0.00374988
0.00420589
0.00470573
0.00521495
0.00558832
0.00558042
0.00431525
0.000129506
0.00224245
0.00221805
0.0023683
0.00188644
0.00214075
0.00196199
0.00217657
0.00198427
0.00221099
0.00220173
0.00233342
0.0022153
0.00231361
0.00235029
0.00246507
0.00249288
0.00253496
0.00267488
0.00280274
0.00298165
0.0031392
0.00339502
0.00371673
0.00416195
0.00460749
0.00509349
0.00538313
0.00541073
0.00355837
0.000145447
0.00223953
0.00222343
0.00236613
0.00189462
0.0021348
0.00196947
0.00216807
0.00199093
0.00220361
0.00221308
0.00232551
0.00222578
0.00230489
0.00236007
0.00245567
0.00249607
0.00252607
0.00267174
0.00279629
0.0029686
0.00312848
0.00336752
0.00368779
0.0040954
0.00453212
0.00491455
0.00511625
0.00489478
0.00334495
0.00016262
0.00223555
0.00222936
0.0023635
0.00190383
0.00212815
0.00197766
0.0021586
0.00199824
0.00219552
0.00222518
0.00231731
0.00223599
0.00229677
0.00236873
0.00244769
0.00249682
0.0025194
0.0026656
0.00279115
0.00295322
0.00311631
0.00333605
0.00365403
0.00401505
0.00444572
0.00473205
0.0047994
0.00402875
0.00284912
0.000181248
0.00223022
0.00223588
0.00236037
0.00191414
0.00212077
0.00198659
0.00214809
0.00200608
0.0021872
0.00223758
0.00230903
0.00224569
0.00228948
0.0023761
0.00244019
0.00249681
0.00251104
0.00266183
0.00277943
0.00294334
0.00309299
0.0033094
0.00359928
0.00394858
0.00430052
0.00457454
0.00465697
0.00428888
0.00250335
0.000201501
0.00222328
0.00224294
0.00235676
0.00192557
0.00211278
0.00199612
0.00213679
0.002014
0.00217893
0.0022501
0.00230149
0.00225438
0.00228378
0.00238156
0.00243406
0.00249519
0.00250393
0.00265693
0.00276652
0.00293215
0.00306526
0.00328098
0.00353121
0.00386798
0.00414338
0.00439446
0.00442694
0.00415734
0.00163982
0.000223834
0.00221429
0.00225062
0.00235248
0.00193829
0.002104
0.00200631
0.00212455
0.00202244
0.00216985
0.00226282
0.00229349
0.00226204
0.00227924
0.00238496
0.00242953
0.00249121
0.00249937
0.00264461
0.00276087
0.00290991
0.00304289
0.00323456
0.00348033
0.00375834
0.00400364
0.00413558
0.0040589
0.00359037
0.00177093
0.000248248
0.00220301
0.00225877
0.00234776
0.00195202
0.00209504
0.00201646
0.0021123
0.00202992
0.00216371
0.00227251
0.00228942
0.00226588
0.00228049
0.00238272
0.00243236
0.00247868
0.00250573
0.00262105
0.00276681
0.00287565
0.00303004
0.00316878
0.00342492
0.00362755
0.00387333
0.00386139
0.00359049
0.00251066
0.00142553
0.00027535
0.0021889
0.00226745
0.00234247
0.001967
0.00208561
0.00202697
0.0020993
0.0020369
0.00215755
0.00228336
0.00228391
0.00227158
0.00227708
0.00238665
0.0024232
0.00248477
0.00248518
0.00262892
0.00273442
0.00287608
0.00297972
0.00313186
0.00330215
0.00352276
0.00363976
0.00366492
0.003504
0.00313208
0.00114237
0.000305435
0.00217161
0.00227648
0.00233663
0.00198309
0.00207579
0.00203751
0.00208583
0.00204353
0.00215057
0.00229238
0.00228031
0.00227556
0.00227519
0.0023875
0.0024175
0.0024839
0.00247252
0.00262093
0.00271219
0.00285318
0.00294095
0.00307572
0.00321757
0.00339457
0.0034495
0.00339855
0.00316262
0.00277429
0.000881221
0.00033861
0.00215092
0.00228545
0.00233079
0.00199977
0.00206754
0.00204641
0.00207538
0.00204522
0.00215454
0.00229037
0.00228684
0.00227195
0.0022843
0.00237728
0.00242865
0.0024597
0.00248833
0.00257829
0.00272779
0.0027892
0.00291737
0.00297187
0.0031531
0.00322583
0.00331758
0.00305994
0.00253695
0.00128888
0.000618005
0.000375357
0.00212643
0.00229424
0.00232467
0.00201725
0.00206063
0.00205488
0.00206427
0.00204928
0.00214467
0.00229561
0.00228307
0.00228011
0.00227385
0.00238952
0.00241212
0.00247972
0.00245582
0.00260288
0.0026766
0.00279227
0.00283689
0.00292375
0.00299932
0.00308505
0.00304737
0.00290428
0.00262795
0.00221308
0.000343027
0.00041644
0.00209769
0.00230295
0.00231749
0.00203526
0.00205355
0.00206325
0.00205113
0.00205336
0.00214423
0.00229748
0.00228609
0.0022809
0.00227191
0.00238961
0.00239929
0.00247505
0.00243295
0.00259361
0.00263395
0.00277121
0.00275719
0.0028732
0.00286958
0.00293906
0.0027894
0.00258883
0.00226371
0.00195945
0.000131331
0.000460864
0.00206567
0.00231046
0.00231226
0.00205241
0.00205036
0.00206619
0.0020506
0.0020421
0.00216172
0.00228334
0.00230813
0.00226433
0.00229705
0.00236514
0.00244474
0.00242262
0.002473
0.00252343
0.00266036
0.00268342
0.00275155
0.00274805
0.00279221
0.00273847
0.00259096
0.00208687
0.0013225
0.000311292
0.000687919
0.000509708
0.00202903
0.00231723
0.00230596
0.002072
0.00204727
0.00207047
0.00203865
0.00205118
0.00215455
0.00229027
0.00230582
0.00226999
0.00228866
0.00236975
0.00242657
0.00242084
0.00245088
0.00250736
0.00262889
0.00264402
0.00268742
0.00266388
0.00267916
0.0026135
0.00242803
0.00185469
0.000969005
-0.000109787
0.000337225
0.000564682
0.00198495
0.00232108
0.0022941
0.00208972
0.00204856
0.0020722
0.00203453
0.00205432
0.00214648
0.00230623
0.0022947
0.00228765
0.00227306
0.0023898
0.00240187
0.00244224
0.00241114
0.0025115
0.00257288
0.0026232
0.00259979
0.00258083
0.00252499
0.00248652
0.00230928
0.00200917
0.00154734
0.000906205
-0.00125353
0.000621958
0.00195113
0.00231647
0.00229639
0.00210435
0.00205334
0.00206906
0.00203483
0.0020525
0.00214084
0.00231653
0.00229025
0.00229493
0.00226789
0.00239528
0.00238965
0.00244434
0.00238371
0.00249527
0.00252756
0.00258051
0.00251034
0.00247297
0.0024016
0.0023453
0.00222415
0.00197797
0.00141068
0.000257778
-0.00348028
0.000686899
0.00189727
0.00232151
0.0022775
0.00213003
0.0020565
0.00207202
0.00202471
0.00205668
0.00213739
0.00231646
0.0023
0.00228784
0.0022768
0.00238395
0.00239716
0.00242545
0.00238368
0.00245843
0.00250794
0.00251858
0.00243868
0.00237726
0.00228824
0.00218441
0.0019589
0.00154237
0.000959223
0.000161895
-0.00246813
0.00075018
0.00186485
0.00229705
0.00229131
0.00213398
0.00207378
0.00205942
0.00204912
0.00202153
0.00216853
0.00229011
0.00232876
0.00226594
0.00229887
0.00235956
0.0024175
0.00238384
0.00237795
0.00240713
0.00246608
0.00243517
0.00235065
0.00226348
0.00218227
0.00201848
0.00176531
0.00100668
-0.000250114
-0.00191489
-0.00261506
0.000826014
0.00181317
0.00229048
0.00226503
0.00216512
0.00207249
0.00207919
0.0020241
0.00204582
0.00214056
0.00232147
0.00231079
0.00229164
0.0022762
0.00238538
0.00239712
0.00240119
0.00233728
0.00238778
0.00240545
0.00237088
0.00223904
0.00212868
0.00199902
0.00186448
0.00162169
0.00126418
0.000761786
-0.000218474
-0.00349309
0.000894099
0.00178464
0.00225503
0.00227901
0.00216826
0.00208898
0.00207736
0.00202724
0.00203099
0.00213686
0.00231948
0.00231158
0.0022919
0.00227169
0.002386
0.0023852
0.0023765
0.0023137
0.00235027
0.0023516
0.00229357
0.00212501
0.0019767
0.00183338
0.00171865
0.00153855
0.0012257
0.000437849
-0.00126133
-0.00561821
0.000970228
0.00174822
0.00221809
0.00227654
0.00218127
0.00210242
0.00209268
0.00202417
0.00204182
0.00213361
0.00232422
0.0023168
0.00229389
0.00227409
0.00238547
0.00238028
0.0023639
0.00229217
0.00231258
0.002291
0.00221169
0.0020072
0.00182261
0.00164354
0.00149075
0.00127953
0.000927259
0.000123195
-0.00161125
-0.00601111
0.00105844
0.00171872
0.00217518
0.0022521
0.00218675
0.00211451
0.00210187
0.00201493
0.00203883
0.00212679
0.00232099
0.00231855
0.00229571
0.00227311
0.00238052
0.00237421
0.00234618
0.00225656
0.00226298
0.00222434
0.00212692
0.00188999
0.00167115
0.0014334
0.0011809
0.000806023
0.000337005
-0.000243856
-0.00116466
-0.00443648
0.00110074
0.00172479
0.002121
0.00229157
0.00216161
0.00216333
0.00209125
0.00205623
0.00201372
0.00215158
0.00229947
0.00233176
0.00229114
0.00227639
0.00236806
0.00236601
0.00232377
0.00221144
0.00221222
0.00215134
0.00202577
0.00176517
0.00149349
0.00127515
0.000957864
0.000394249
-0.00073026
-0.0022664
-0.0041432
-0.00382697
0.00122371
0.00166994
0.0020875
0.00222881
0.00219204
0.00214248
0.00213157
0.0020248
0.0020338
0.00213419
0.00230945
0.00232486
0.00230298
0.00227012
0.0023614
0.00235396
0.00230243
0.00217553
0.00215791
0.00207888
0.00192712
0.00159988
0.00127866
0.000981169
0.000749395
0.000495989
0.000146835
-0.000260728
-0.000800008
-0.00375358
0.00123946
0.00171296
0.00203414
0.00226207
0.00216677
0.00218923
0.00211613
0.00207084
0.00200814
0.00213725
0.00230413
0.00232785
0.00230375
0.00226946
0.00235771
0.00232865
0.00227147
0.00212029
0.00208629
0.00200763
0.00183755
0.00154169
0.00123487
0.000965418
0.000561742
-0.000212775
-0.00150375
-0.00315666
-0.00508029
-0.00444425
0.00135396
0.00166308
0.00201367
0.00220081
0.00219342
0.00217208
0.00215489
0.00206172
0.0020265
0.00210998
0.00231343
0.00232166
0.00229801
0.00226923
0.00235806
0.00230874
0.00223004
0.00206918
0.00201522
0.00191993
0.00175482
0.00143748
0.00110653
0.000783441
0.000496787
0.000191391
-0.000163664
-0.000675847
-0.00193238
-0.00598549
0.00140941
0.00167306
0.0019868
0.00216253
0.00221609
0.00216454
0.00217909
0.00207209
0.00201984
0.00210034
0.00231888
0.002327
0.00229196
0.00226281
0.00233749
0.00228505
0.00218539
0.00202512
0.00195626
0.00184049
0.00166846
0.00133647
0.00101734
0.000720623
0.000466466
8.30175e-05
-0.000555776
-0.00175623
-0.00398833
-0.0089871
0.00142441
0.00171907
0.00196229
0.0021372
0.00221608
0.0021653
0.00218887
0.00210093
0.00201674
0.00210236
0.00231864
0.00233399
0.00228508
0.00224646
0.00232431
0.00226119
0.00214172
0.00196021
0.00189104
0.00176912
0.00157909
0.00123454
0.000891739
0.000568704
0.000266447
-0.000174561
-0.000895377
-0.0021552
-0.00448691
-0.00947444
0.00156149
0.00166303
0.00194383
0.00209386
0.00219916
0.00218735
0.00219496
0.00209538
0.00202636
0.00209281
0.00231504
0.00234712
0.00228238
0.00222082
0.00229203
0.00223191
0.0020968
0.00190738
0.00184142
0.00171061
0.00150634
0.00112664
0.000734148
0.000312169
-0.000102666
-0.000597324
-0.00117636
-0.00200809
-0.00359708
-0.00827333
0.00149171
0.00179485
0.0019199
0.00210457
0.00212471
0.00224506
0.0021703
0.00213702
0.00201227
0.00210247
0.00229326
0.00235959
0.0022804
0.00218905
0.0022558
0.0021829
0.00205138
0.00184244
0.00179062
0.00166814
0.0014337
0.00105816
0.000622727
0.00016733
-0.000539652
-0.00164293
-0.00319608
-0.005066
-0.00712254
-0.00615816
0.00164967
0.00172311
0.00192507
0.00204398
0.00213244
0.0022252
0.00222354
0.00211171
0.00204302
0.00208573
0.00229802
0.00235356
0.0022799
0.0021612
0.00221276
0.0021454
0.00199982
0.00177257
0.00169215
0.00157451
0.00136531
0.000962103
0.000535561
0.000125594
-0.000237126
-0.000657183
-0.00125895
-0.00229002
-0.00441349
-0.00967824
0.00163433
0.00175002
0.00196411
0.00201298
0.00210528
0.00221435
0.00225681
0.00211467
0.00203317
0.00208184
0.0022939
0.00235898
0.00228461
0.00214709
0.00215218
0.00208297
0.00193919
0.00170791
0.00161297
0.00149553
0.00130758
0.000922627
0.000523979
0.000130044
-0.000256415
-0.000912489
-0.00200372
-0.00385361
-0.00691271
-0.0127297
0.00165957
0.0018246
0.00195084
0.00201009
0.0020523
0.00220934
0.00228755
0.00212376
0.00202046
0.00207776
0.00229645
0.0023391
0.00228559
0.00212176
0.00209672
0.00200222
0.0018704
0.00164342
0.00153924
0.00142614
0.00124264
0.000875654
0.000460515
4.77972e-05
-0.000390262
-0.00103704
-0.00209249
-0.00385954
-0.00699338
-0.0130253
0.00174756
0.00178693
0.00194169
0.00201566
0.00201026
0.00218995
0.00231641
0.00214441
0.00200513
0.00207214
0.00229197
0.00233712
0.00227002
0.00210294
0.00204768
0.00192292
0.00178972
0.00157255
0.00147431
0.00135606
0.00117412
0.000803572
0.00038123
-5.27122e-05
-0.000505018
-0.00117141
-0.0022778
-0.00420358
-0.00759113
-0.0139363
0.00172593
0.00183118
0.00199722
0.00201983
0.00198252
0.00214692
0.00233368
0.00218174
0.00199308
0.00203857
0.00227791
0.00232761
0.00225377
0.00208588
0.00201027
0.00185162
0.00169818
0.0014856
0.00139682
0.00128454
0.00110162
0.000724966
0.000288209
-0.000166361
-0.000645225
-0.00135767
-0.002555
-0.00461189
-0.00816073
-0.014654
0.00179498
0.00185324
0.00196305
0.00202427
0.0019694
0.00209516
0.00233727
0.00223405
0.00199265
0.00199178
0.0022506
0.0023173
0.00223515
0.00206219
0.00198467
0.00179723
0.00160719
0.00138122
0.0013008
0.00120183
0.00102428
0.000641053
0.000184374
-0.000298599
-0.000814285
-0.00157983
-0.00284835
-0.00499134
-0.00862823
-0.0151628
0.00182382
0.00184736
0.00196852
0.00206846
0.00196875
0.00203939
0.00231643
0.0022813
0.0020107
0.00194426
0.00220167
0.00230102
0.00221653
0.0020325
0.00196012
0.0017629
0.00153264
0.00127013
0.00118574
0.00110026
0.000937068
0.000550714
7.11503e-05
-0.00044721
-0.00100187
-0.00180925
-0.00312683
-0.00532691
-0.00900967
-0.0155672
0.00184709
0.00187612
0.00198517
0.00207462
0.00197901
0.00199473
0.00227309
0.00231157
0.00204696
0.00190427
0.00213036
0.00226463
0.0021959
0.00199833
0.00192637
0.00173523
0.00147754
0.00116747
0.0010548
0.000976557
0.000832215
0.000450285
-5.04899e-05
-0.000605957
-0.0011976
-0.00203561
-0.00338379
-0.00561659
-0.00933327
-0.0159181
0.00188665
0.00189867
0.00195898
0.00207447
0.00201465
0.00196725
0.00221362
0.00232383
0.00209683
0.00188387
0.00205407
0.00220916
0.00217153
0.00196585
0.00188389
0.00170425
0.00144106
0.00108448
0.000925314
0.000835064
0.000707953
0.000337133
-0.000178943
-0.000768822
-0.00139459
-0.00225525
-0.00361704
-0.00586453
-0.00959898
-0.0161993
0.00191671
0.00191254
0.00195416
0.00208304
0.00205251
0.00195587
0.00214346
0.00230775
0.00214483
0.00188357
0.0019758
0.00213301
0.00213468
0.00193218
0.00183334
0.00166005
0.00140475
0.00101843
0.000806583
0.000685799
0.000565065
0.000209042
-0.000314424
-0.000933782
-0.00159017
-0.00246562
-0.00382989
-0.00608218
-0.00983189
-0.0164539
0.00193833
0.00193919
0.00196075
0.00206897
0.00207643
0.00196411
0.00208322
0.00226517
0.00217629
0.00190168
0.0019117
0.00204243
0.00208145
0.00189571
0.00178267
0.00160579
0.00136098
0.000962083
0.000701617
0.000540957
0.000414671
7.10918e-05
-0.000453947
-0.00109795
-0.00178178
-0.0026687
-0.00402973
-0.00627939
-0.010038
-0.0166793
0.00196044
0.00196511
0.00196899
0.00205133
0.00208866
0.00198983
0.00203918
0.0022014
0.00218545
0.00193274
0.00186761
0.00194583
0.00200701
0.00185069
0.00173296
0.00154664
0.00130851
0.000903839
0.000606083
0.000402515
0.000263929
-6.90919e-05
-0.000591946
-0.00125694
-0.00196979
-0.0028699
-0.00422497
-0.00646544
-0.0102259
-0.0168773
0.00197735
0.00198563
0.00198532
0.00204071
0.00208923
0.00201264
0.00201255
0.0021331
0.00216775
0.00196053
0.00184439
0.00185557
0.00191414
0.00178751
0.00168034
0.00148859
0.00125082
0.000841956
0.000512845
0.000269508
0.000114012
-0.000207396
-0.000722661
-0.00140602
-0.0021512
-0.00307033
-0.00441961
-0.00664434
-0.0104008
-0.0170667
0.00199341
0.00200444
0.00200279
0.00203463
0.0020804
0.00202762
0.00200238
0.0020727
0.00212511
0.00197305
0.00184543
0.00178399
0.00181309
0.00170388
0.00161584
0.0014294
0.00119374
0.000779452
0.000421398
0.000138417
-3.57804e-05
-0.00034583
-0.000845307
-0.00154034
-0.00231952
-0.00326581
-0.0046139
-0.0068183
-0.0105601
-0.0172317
0.00201155
0.00201974
0.00201703
0.00203269
0.00206836
0.00203406
0.002001
0.00202422
0.00206708
0.00196093
0.00184414
0.0017346
0.00171847
0.00160396
0.00153142
0.00136264
0.00113777
0.000721318
0.000335113
9.59209e-06
-0.000188426
-0.000487874
-0.000964289
-0.00165881
-0.00246861
-0.00344888
-0.0048055
-0.00698972
-0.0107015
-0.0173549
0.00202683
0.00203228
0.00203004
0.0020348
0.00205691
0.00203171
0.00199971
0.00198808
0.00200836
0.00192594
0.00183418
0.00170337
0.0016406
0.00149988
0.00142901
0.00127848
0.00107783
0.000669074
0.00025895
-0.000111955
-0.000342758
-0.0006372
-0.00108492
-0.00176563
-0.00259553
-0.00361236
-0.00498864
-0.00716221
-0.0108493
-0.0174907
0.00203964
0.00204368
0.00204155
0.00203892
0.00204676
0.00202191
0.00199466
0.00196197
0.00195488
0.00187594
0.00180725
0.00167518
0.00158001
0.00140458
0.00131525
0.00117445
0.0010046
0.000618324
0.000195428
-0.000220138
-0.000492479
-0.000793698
-0.00121332
-0.00186801
-0.00270375
-0.00375236
-0.00515664
-0.00733244
-0.0110004
-0.0176226
0.00205248
0.00205373
0.00204957
0.00204249
0.00203833
0.0020078
0.00198338
0.00194075
0.00191005
0.0018203
0.0017635
0.00164014
0.00153236
0.00132534
0.00120366
0.00105553
0.000911759
0.000560482
0.000141184
-0.000310552
-0.000630429
-0.000951846
-0.00135191
-0.00197385
-0.00280016
-0.00386992
-0.00530416
-0.00749289
-0.0111502
-0.0177531
0.00206321
0.00206217
0.00205537
0.00204463
0.00203175
0.00199234
0.0019661
0.0019201
0.00187336
0.0017666
0.00170708
0.00159273
0.00148693
0.00126082
0.00110426
0.000931013
0.000800804
0.00048705
8.89762e-05
-0.000383877
-0.000750183
-0.00110331
-0.00149744
-0.00208833
-0.00289293
-0.00397024
-0.00542994
-0.00763768
-0.0112944
-0.0178843
0.00207184
0.00206931
0.00205928
0.00204452
0.00202586
0.00197734
0.00194338
0.00189502
0.00184214
0.00171906
0.00164601
0.00153355
0.00143581
0.00120586
0.00102077
0.000813091
0.000678647
0.000395036
2.93402e-05
-0.0004464
-0.000849705
-0.00124048
-0.00164252
-0.00221133
-0.00298919
-0.00406071
-0.00553691
-0.00776405
-0.0114275
-0.0180143
0.00207957
0.00207501
0.00206102
0.00204171
0.00201887
0.0019635
0.00191934
0.00186532
0.00181086
0.00167753
0.00158705
0.00146625
0.00137533
0.00115171
0.000950324
0.000709077
0.000555248
0.000288184
-4.3787e-05
-0.000506449
-0.000932469
-0.00135898
-0.00177931
-0.00233804
-0.00309145
-0.0041481
-0.00562938
-0.00787113
-0.0115425
-0.0181263
0.00208555
0.00207887
0.0020611
0.00203685
0.00201031
0.0019503
0.00189596
0.00183211
0.0017761
0.00163959
0.00153345
0.00139692
0.00130675
0.00109276
0.000887776
0.000620492
0.000440186
0.000174172
-0.000131098
-0.000571838
-0.00100516
-0.00145966
-0.00190274
-0.00246194
-0.00319755
-0.00423628
-0.00571354
-0.00796361
-0.0116443
-0.0182323
0.00208938
0.00208119
0.00206026
0.00203049
0.00199933
0.00193621
0.00187343
0.00179774
0.00173777
0.00160164
0.001485
0.00133086
0.0012339
0.0010274
0.000826867
0.000543994
0.000338106
6.16402e-05
-0.000228131
-0.000646309
-0.00107486
-0.00154649
-0.00201111
-0.00257773
-0.00330355
-0.00432671
-0.0057958
-0.00804878
-0.0117367
-0.0183291
0.00209091
0.00208191
0.00205843
0.00202318
0.00198697
0.00192058
0.00185121
0.00176409
0.0016973
0.00156146
0.00143967
0.00127026
0.00116132
0.000957153
0.000763722
0.000474944
0.000249054
-4.28223e-05
-0.000328068
-0.000728752
-0.00114637
-0.00162454
-0.00210563
-0.00268289
-0.00340602
-0.00441817
-0.0058782
-0.00813059
-0.0118255
-0.0184269
0.00209064
0.00208083
0.00205537
0.00201503
0.00197335
0.00190345
0.00182887
0.00173171
0.00165633
0.00151913
0.00139533
0.00121473
0.0010926
0.000885445
0.000697597
0.00040893
0.000170113
-0.000136749
-0.000424941
-0.000815197
-0.00122123
-0.0016986
-0.00218961
-0.00277711
-0.00350209
-0.00450807
-0.00596044
-0.00820989
-0.0119076
-0.0185133
0.00208939
0.00207812
0.00205054
0.00200571
0.00195862
0.00188519
0.00180632
0.00170068
0.00161623
0.00147585
0.00135087
0.00116283
0.00102898
0.00081553
0.000629969
0.000343577
9.80373e-05
-0.000220863
-0.000515329
-0.000901205
-0.001298
-0.00177112
-0.00226634
-0.00286139
-0.00359006
-0.00459365
-0.00604067
-0.00828642
-0.0119837
-0.0185908
0.00208618
0.00207386
0.00204447
0.00199572
0.0019432
0.00186607
0.00178356
0.00167084
0.00157781
0.00143284
0.0013064
0.00111346
0.000970166
0.000749453
0.00056322
0.000278787
3.04315e-05
-0.000296734
-0.000597908
-0.000983223
-0.00137403
-0.00184238
-0.00233824
-0.00293774
-0.00366995
-0.00467316
-0.00611658
-0.00835845
-0.0120537
-0.0186613
0.00208236
0.00206846
0.00203735
0.00198529
0.00192745
0.00184633
0.00176067
0.00164223
0.00154147
0.00139115
0.00126262
0.00106626
0.000915696
0.000687984
0.000499298
0.0002157
-3.36076e-05
-0.000365715
-0.000672482
-0.00105933
-0.0014471
-0.00191162
-0.00240636
-0.0030077
-0.00374215
-0.00474548
-0.00618653
-0.00842527
-0.0121185
-0.0187263
0.00207757
0.00206215
0.00202925
0.00197455
0.00191189
0.0018265
0.00173793
0.00161496
0.00150747
0.00135158
0.00122039
0.00102137
0.000865354
0.000631511
0.000439526
0.000155655
-9.40569e-05
-0.000428997
-0.000739882
-0.00112892
-0.00151552
-0.00197731
-0.00247031
-0.00307183
-0.00380723
-0.00481064
-0.00625027
-0.0084869
-0.0121787
-0.0187866
0.00207209
0.00205525
0.00202048
0.00196365
0.00189699
0.00180725
0.00171575
0.00158919
0.0014761
0.00131484
0.00118053
0.000979201
0.000819122
0.000580162
0.000384612
9.96741e-05
-0.000150424
-0.00048701
-0.000800656
-0.00119163
-0.001578
-0.00203806
-0.00252946
-0.00313048
-0.00386607
-0.00486937
-0.00630801
-0.00854316
-0.0122338
-0.0188418
0.00206621
0.00204814
0.00201152
0.00195286
0.00188303
0.00178922
0.0016947
0.00156524
0.00144766
0.00128148
0.0011438
0.000940277
0.000777118
0.000534052
0.000335112
4.86879e-05
-0.000201899
-0.000539484
-0.000854928
-0.00124743
-0.00163402
-0.00209311
-0.00258327
-0.0031836
-0.00391898
-0.00492203
-0.00635988
-0.00859386
-0.0122835
-0.0188915
0.00206029
0.00204123
0.00200292
0.00194256
0.00187032
0.00177301
0.00167548
0.00154352
0.00142245
0.00125206
0.00111104
0.000905342
0.000739781
0.000493536
0.000291637
3.58967e-06
-0.000247605
-0.000585869
-0.000902533
-0.00129623
-0.00168317
-0.00214172
-0.00263098
-0.00323068
-0.00396582
-0.00496869
-0.0064061
-0.00863935
-0.0123282
-0.0189361
0.00205464
0.0020349
0.00199523
0.00193334
0.00185925
0.00175915
0.00165882
0.00152466
0.00140094
0.00122713
0.00108302
0.000875293
0.000707934
0.000459387
0.000255084
-3.45116e-05
-0.000286337
-0.00062504
-0.000942505
-0.0013371
-0.00172446
-0.00218274
-0.00267136
-0.00327056
-0.00400549
-0.00500833
-0.00644564
-0.00867874
-0.0123676
-0.018976
0.00204986
0.00202959
0.0019888
0.00192557
0.00185015
0.00174804
0.00164538
0.00150938
0.00138375
0.0012074
0.00106075
0.000851321
0.000682748
0.000432679
0.00022659
-6.4301e-05
-0.000316639
-0.000655549
-0.000973474
-0.00136876
-0.00175658
-0.00221479
-0.00270292
-0.00330162
-0.00403629
-0.00503909
-0.00647645
-0.00870962
-0.0123986
-0.0190072
0.00204634
0.00202556
0.0019839
0.00191945
0.00184265
0.00173867
0.0016336
0.00149538
0.00136785
0.0011895
0.00104081
0.000829842
0.000660201
0.000408995
0.000201405
-9.10335e-05
-0.000344586
-0.000684464
-0.0010033
-0.00139956
-0.00178805
-0.00224647
-0.00273427
-0.00333237
-0.0040663
-0.00506838
-0.006505
-0.00873767
-0.0124271
-0.019039
0.0138699
0.01361
0.0121784
0.0100665
0.00732271
0.0040694
0.000445931
-0.00320018
-0.00612716
-0.00763007
-0.00770654
-0.00692221
-0.00588213
-0.00492355
-0.00418554
-0.00367917
-0.00336962
-0.0031934
-0.00310495
-0.00305959
-0.00303861
-0.00302032
-0.00300341
-0.00297785
-0.00295
-0.00291433
-0.00287919
-0.00283979
-0.00280383
-0.00276633
-0.00273366
-0.00270087
-0.002673
-0.00264589
-0.00262351
-0.00260296
-0.00258658
-0.00257255
-0.0025612
-0.00255233
-0.00254442
-0.00253943
-0.0025338
-0.00253181
-0.00252776
-0.00252847
-0.00252597
-0.00252952
-0.00252863
-0.00253488
-0.00253538
-0.00254379
-0.00254505
-0.00255475
-0.00255624
-0.00256685
-0.00256888
-0.0025807
-0.00258396
-0.00259717
-0.00260197
-0.00261622
-0.00262248
-0.0026371
-0.00264459
-0.00265904
-0.00266793
-0.00268215
-0.00269291
-0.00270692
-0.00271979
-0.00273338
-0.00274832
-0.00276124
-0.00277813
-0.00279033
-0.00280913
-0.0028207
-0.00284119
-0.00285236
-0.00287429
-0.00288521
-0.00290788
-0.00291857
-0.0029412
-0.00295191
-0.00297395
-0.00298524
-0.0030063
-0.00301875
-0.00303837
-0.00305224
-0.00306984
-0.00308537
-0.00310095
-0.00311869
-0.00313269
-0.00315286
-0.00316562
-0.003188
-0.00319997
-0.00322403
-0.00323577
-0.00326064
-0.00327256
-0.00329693
-0.00330929
-0.00333202
-0.0033457
-0.00336664
-0.00338294
-0.00340206
-0.00342136
-0.00343833
-0.00346044
-0.0034756
-0.00350042
-0.00351465
-0.00354148
-0.0035557
-0.00358351
-0.00359886
-0.00362645
-0.00364381
-0.00366963
-0.00368926
-0.00371205
-0.00373434
-0.00375424
-0.00377978
-0.00379743
-0.00382532
-0.00384096
-0.00386954
-0.00388445
-0.00391261
-0.0039287
-0.00395519
-0.00397366
-0.00399688
-0.00401797
-0.00403708
-0.00406088
-0.00407653
-0.00410241
-0.00411568
-0.00414184
-0.00415419
-0.00417868
-0.00419216
-0.00421354
-0.00422963
-0.00424669
-0.00426576
-0.00427845
-0.00430003
-0.00430952
-0.00433187
-0.00433993
-0.0043607
-0.00436968
-0.00438694
-0.00439877
-0.00441128
-0.00442647
-0.00443444
-0.00445229
-0.00445762
-0.00447615
-0.00448137
-0.0044978
-0.00450538
-0.00451764
-0.00452927
-0.00453692
-0.00455249
-0.00455679
-0.00457431
-0.00457815
-0.00459487
-0.00460128
-0.00461422
-0.00462496
-0.00463283
-0.00464761
-0.00465155
-0.00466787
-0.00467085
-0.0046852
-0.00469062
-0.00470034
-0.00471031
-0.00471495
-0.00472907
-0.00473107
-0.00474646
-0.00474989
-0.00476303