/*--------------------------------*- C++ -*----------------------------------*\
| =========                 |                                                 |
| \\      /  F ield         | OpenFOAM: The Open Source CFD Toolbox           |
|  \\    /   O peration     | Version:  v2006                                 |
|   \\  /    A nd           | Website:  www.openfoam.com                      |
|    \\/     M anipulation  |                                                 |
\*---------------------------------------------------------------------------*/
FoamFile
{
    version     2.0;
    format      ascii;
    class       surfaceScalarField;
    location    "0.5";
    object      phi;
}
// * * * * * * * * * * * * * * * * * * * * * * * * * * * * * * * * * * * * * //

dimensions      [0 3 -1 0 0 0 0];
oriented        oriented;


internalField   nonuniform List<scalar> 
52390
(
1.17028e-06
-3.21928e-07
1.1693e-06
2.81657e-07
1.17286e-06
-2.30187e-07
1.17408e-06
2.02386e-07
1.17822e-06
-2.27491e-07
1.17735e-06
1.40501e-07
1.17903e-06
-1.53957e-07
1.17785e-06
1.51408e-07
1.18088e-06
-1.03625e-07
1.18181e-06
1.08254e-07
1.18662e-06
-1.03281e-07
1.18792e-06
5.68148e-08
1.19183e-06
-1.0745e-07
1.19081e-06
3.83487e-08
1.19286e-06
-8.71464e-08
1.18998e-06
3.22785e-08
1.19124e-06
-6.17051e-08
1.18809e-06
2.6369e-08
1.18978e-06
-4.73552e-08
1.18732e-06
1.80403e-08
1.19005e-06
-3.96581e-08
1.18806e-06
1.08171e-08
1.19166e-06
-3.24623e-08
1.18951e-06
7.20826e-09
1.19364e-06
-2.409e-08
1.19084e-06
5.73278e-09
1.19449e-06
-1.18335e-08
1.1891e-06
4.48989e-09
1.18555e-06
1.90241e-08
2.39102e-08
1.15778e-06
1.22736e-06
-3.2503e-07
1.22704e-06
2.81983e-07
1.23129e-06
-2.34439e-07
1.23312e-06
2.00556e-07
1.2376e-06
-2.31973e-07
1.23703e-06
1.41076e-07
1.23865e-06
-1.55584e-07
1.23807e-06
1.51989e-07
1.24059e-06
-1.06143e-07
1.24218e-06
1.06661e-07
1.24619e-06
-1.07286e-07
1.24832e-06
5.46819e-08
1.25121e-06
-1.10338e-07
1.25137e-06
3.81844e-08
1.25192e-06
-8.76976e-08
1.25076e-06
3.34396e-08
1.24985e-06
-6.0796e-08
1.24912e-06
2.7099e-08
1.24772e-06
-4.59517e-08
1.24867e-06
1.709e-08
1.24717e-06
-3.81562e-08
1.24999e-06
7.99892e-09
1.24778e-06
-3.02548e-08
1.25223e-06
2.75349e-09
1.24852e-06
-2.03726e-08
1.25418e-06
7.41043e-11
1.24829e-06
-5.94955e-09
1.25264e-06
1.3888e-10
1.24167e-06
2.99972e-08
3.85472e-08
1.22703e-06
1.28574e-06
-3.2799e-07
1.28868e-06
2.79045e-07
1.2917e-06
-2.37455e-07
1.29592e-06
1.96336e-07
1.29866e-06
-2.34715e-07
1.30063e-06
1.39101e-07
1.30031e-06
-1.55256e-07
1.30232e-06
1.49973e-07
1.30225e-06
-1.06067e-07
1.30614e-06
1.02766e-07
1.3072e-06
-1.08347e-07
1.31163e-06
5.02517e-08
1.31147e-06
-1.10172e-07
1.31439e-06
3.52594e-08
1.3117e-06
-8.50066e-08
1.31357e-06
3.15686e-08
1.30926e-06
-5.64841e-08
1.31146e-06
2.48942e-08
1.30673e-06
-4.12166e-08
1.31022e-06
1.35964e-08
1.30585e-06
-3.37828e-08
1.31047e-06
3.3787e-09
1.3064e-06
-2.6189e-08
1.31135e-06
-2.19487e-09
1.30755e-06
-1.65685e-08
1.31158e-06
-3.9524e-09
1.30858e-06
-2.95164e-09
1.30711e-06
1.6044e-09
1.30526e-06
3.18459e-08
6.03851e-08
1.28342e-06
1.34605e-06
-3.29937e-07
1.35193e-06
2.73166e-07
1.35324e-06
-2.38768e-07
1.35954e-06
1.90034e-07
1.36016e-06
-2.3533e-07
1.36455e-06
1.34711e-07
1.36243e-06
-1.53137e-07
1.3666e-06
1.45798e-07
1.3643e-06
-1.03763e-07
1.36957e-06
9.74966e-08
1.36826e-06
-1.07036e-07
1.37373e-06
4.47815e-08
1.37155e-06
-1.07996e-07
1.37566e-06
3.11516e-08
1.37148e-06
-8.08236e-08
1.3743e-06
2.87502e-08
1.3691e-06
-5.12877e-08
1.37157e-06
2.24241e-08
1.36663e-06
-3.62817e-08
1.36961e-06
1.06238e-08
1.36579e-06
-2.99627e-08
1.36919e-06
-2.38567e-11
1.36644e-06
-2.34419e-08
1.36959e-06
-5.34229e-09
1.36781e-06
-1.47887e-08
1.36946e-06
-5.59949e-09
1.36909e-06
-2.58826e-09
1.36496e-06
5.738e-09
1.36543e-06
3.13718e-08
8.29305e-08
1.34289e-06
1.40869e-06
-3.30277e-07
1.41629e-06
2.65571e-07
1.41591e-06
-2.38386e-07
1.42317e-06
1.82776e-07
1.42194e-06
-2.34104e-07
1.42764e-06
1.29015e-07
1.42459e-06
-1.50087e-07
1.42972e-06
1.40663e-07
1.42638e-06
-1.0042e-07
1.43168e-06
9.21965e-08
1.4293e-06
-1.0466e-07
1.43441e-06
3.96741e-08
1.43167e-06
-1.05256e-07
1.43556e-06
2.72612e-08
1.43149e-06
-7.67519e-08
1.43402e-06
2.62226e-08
1.42946e-06
-4.67282e-08
1.43133e-06
2.05504e-08
1.42729e-06
-3.22392e-08
1.42943e-06
8.47747e-09
1.42657e-06
-2.70949e-08
1.42909e-06
-2.55276e-09
1.42726e-06
-2.16077e-08
1.42961e-06
-7.69229e-09
1.42863e-06
-1.38125e-08
1.42962e-06
-6.58131e-09
1.42946e-06
-2.43055e-09
1.42614e-06
9.05397e-09
1.42422e-06
3.32979e-08
1.08367e-07
1.39878e-06
1.4743e-06
-3.28903e-07
1.4822e-06
2.57677e-07
1.48053e-06
-2.36722e-07
1.48753e-06
1.75783e-07
1.4851e-06
-2.31674e-07
1.49086e-06
1.2325e-07
1.48773e-06
-1.4696e-07
1.49283e-06
1.35566e-07
1.48947e-06
-9.70559e-08
1.49408e-06
8.75837e-08
1.49152e-06
-1.02099e-07
1.49575e-06
3.5443e-08
1.49307e-06
-1.02576e-07
1.49642e-06
2.39127e-08
1.49285e-06
-7.3178e-08
1.4951e-06
2.39649e-08
1.49126e-06
-4.2881e-08
1.49294e-06
1.88655e-08
1.48952e-06
-2.88205e-08
1.49149e-06
6.51184e-09
1.48903e-06
-2.46357e-08
1.49138e-06
-4.90794e-09
1.48977e-06
-1.99931e-08
1.492e-06
-9.92498e-09
1.49094e-06
-1.27518e-08
1.49229e-06
-7.93102e-09
1.49077e-06
-9.09824e-10
1.48961e-06
1.02155e-08
1.48951e-06
3.3401e-08
6.06573e-08
1.53722e-06
1.5434e-06
-3.26091e-07
1.55062e-06
2.50463e-07
1.54817e-06
-2.34278e-07
1.5542e-06
1.6976e-07
1.5511e-06
-2.28577e-07
1.55622e-06
1.18126e-07
1.55336e-06
-1.44098e-07
1.55807e-06
1.30859e-07
1.55505e-06
-9.40353e-08
1.55901e-06
8.36223e-08
1.55645e-06
-9.95391e-08
1.56e-06
3.18907e-08
1.55729e-06
-9.98652e-08
1.56033e-06
2.08766e-08
1.55699e-06
-6.98406e-08
1.55932e-06
2.16396e-08
1.55585e-06
-3.94108e-08
1.55775e-06
1.69595e-08
1.55463e-06
-2.56991e-08
1.55674e-06
4.40306e-09
1.55443e-06
-2.23245e-08
1.55673e-06
-7.21006e-09
1.55521e-06
-1.84708e-08
1.55713e-06
-1.1844e-08
1.55634e-06
-1.19676e-08
1.55672e-06
-8.30781e-09
1.55677e-06
-9.64127e-10
1.55286e-06
1.41282e-08
1.54938e-06
3.68828e-08
9.12029e-08
1.51883e-06
1.61629e-06
-3.22251e-07
1.62252e-06
2.44228e-07
1.61962e-06
-2.31373e-07
1.62462e-06
1.64759e-07
1.62108e-06
-2.25041e-07
1.62547e-06
1.13741e-07
1.62275e-06
-1.4138e-07
1.62719e-06
1.26421e-07
1.6244e-06
-9.12503e-08
1.62806e-06
7.99625e-08
1.62536e-06
-9.68329e-08
1.62858e-06
2.8664e-08
1.62558e-06
-9.68643e-08
1.62853e-06
1.79256e-08
1.62515e-06
-6.64563e-08
1.62771e-06
1.90801e-08
1.62439e-06
-3.60944e-08
1.62664e-06
1.47167e-08
1.62369e-06
-2.27488e-08
1.62595e-06
2.13843e-09
1.62373e-06
-2.01069e-08
1.62588e-06
-9.35906e-09
1.62442e-06
-1.70125e-08
1.6259e-06
-1.33157e-08
1.62522e-06
-1.12912e-08
1.62476e-06
-7.85373e-09
1.62535e-06
-1.54533e-09
1.62105e-06
1.84264e-08
1.61692e-06
4.10128e-08
1.27454e-07
1.58067e-06
1.69304e-06
-3.17713e-07
1.69852e-06
2.38748e-07
1.69524e-06
-2.281e-07
1.69958e-06
1.60427e-07
1.69561e-06
-2.21075e-07
1.69951e-06
1.09845e-07
1.69665e-06
-1.38525e-07
1.70107e-06
1.22001e-07
1.69829e-06
-8.84671e-08
1.70195e-06
7.62958e-08
1.69894e-06
-9.38188e-08
1.70209e-06
2.55139e-08
1.69865e-06
-9.34222e-08
1.70163e-06
1.49478e-08
1.69805e-06
-6.28842e-08
1.70087e-06
1.62636e-08
1.69761e-06
-3.28313e-08
1.70016e-06
1.21635e-08
1.69732e-06
-1.99111e-08
1.69969e-06
-2.33761e-10
1.69751e-06
-1.79176e-08
1.6995e-06
-1.13558e-08
1.69784e-06
-1.53523e-08
1.69931e-06
-1.47868e-08
1.69741e-06
-9.38393e-09
1.69868e-06
-9.12563e-09
1.69434e-06
2.79432e-09
1.69942e-06
1.33437e-08
1.70118e-06
3.92559e-08
7.72506e-08
1.75138e-06
1.77367e-06
-3.12661e-07
1.77882e-06
2.33598e-07
1.77514e-06
-2.24417e-07
1.77924e-06
1.56327e-07
1.77478e-06
-2.16619e-07
1.77851e-06
1.06114e-07
1.77531e-06
-1.3532e-07
1.77991e-06
1.17399e-07
1.77694e-06
-8.55002e-08
1.78079e-06
7.2444e-08
1.77739e-06
-9.04137e-08
1.7806e-06
2.22987e-08
1.77669e-06
-8.95112e-08
1.77975e-06
1.18872e-08
1.77597e-06
-5.90977e-08
1.77901e-06
1.32226e-08
1.77578e-06
-2.9603e-08
1.77854e-06
9.40081e-09
1.77585e-06
-1.72145e-08
1.77817e-06
-2.55717e-09
1.77611e-06
-1.5856e-08
1.77772e-06
-1.29642e-08
1.77614e-06
-1.37744e-08
1.77704e-06
-1.56832e-08
1.77496e-06
-7.30439e-09
1.77597e-06
-1.01445e-08
1.77038e-06
8.38952e-09
1.77717e-06
6.5574e-09
1.77932e-06
3.71003e-08
2.10714e-08
1.8355e-06
1.85825e-06
-3.07163e-07
1.86346e-06
2.28385e-07
1.85929e-06
-2.20242e-07
1.8635e-06
1.5212e-07
1.85851e-06
-2.11631e-07
1.86234e-06
1.02276e-07
1.85869e-06
-1.31663e-07
1.8636e-06
1.12491e-07
1.86033e-06
-8.22336e-08
1.86445e-06
6.83196e-08
1.86063e-06
-8.65945e-08
1.864e-06
1.89333e-08
1.85966e-06
-8.51733e-08
1.86285e-06
8.70238e-09
1.85888e-06
-5.51303e-08
1.8621e-06
1.0002e-08
1.85893e-06
-2.643e-08
1.86178e-06
6.54616e-09
1.85927e-06
-1.47081e-08
1.8614e-06
-4.68338e-09
1.85958e-06
-1.40386e-08
1.8606e-06
-1.39859e-08
1.85942e-06
-1.25914e-08
1.85915e-06
-1.54073e-08
1.85826e-06
-6.41906e-09
1.85649e-06
-8.37726e-09
1.85502e-06
9.86088e-09
1.85023e-06
1.13503e-08
1.84061e-06
4.67233e-08
5.69216e-08
1.80476e-06
1.94691e-06
-3.01235e-07
1.95246e-06
2.22831e-07
1.94772e-06
-2.15499e-07
1.95225e-06
1.47593e-07
1.9467e-06
-2.06084e-07
1.95084e-06
9.8141e-08
1.94669e-06
-1.27515e-07
1.95198e-06
1.07203e-07
1.94834e-06
-7.85952e-08
1.95278e-06
6.38794e-08
1.94855e-06
-8.23673e-08
1.95212e-06
1.5364e-08
1.94742e-06
-8.04763e-08
1.95076e-06
5.36751e-09
1.94667e-06
-5.10447e-08
1.95002e-06
6.66105e-09
1.94695e-06
-2.33617e-08
1.94976e-06
3.72923e-09
1.94752e-06
-1.2465e-08
1.94932e-06
-6.48146e-09
1.94783e-06
-1.25527e-08
1.94823e-06
-1.43793e-08
1.94743e-06
-1.1798e-08
1.9462e-06
-1.41723e-08
1.94603e-06
-6.25024e-09
1.9425e-06
-4.84427e-09
1.94355e-06
8.8028e-09
1.9325e-06
2.2401e-08
1.92779e-06
5.14387e-08
8.80175e-08
1.89669e-06
2.03982e-06
-2.94868e-07
2.0459e-06
2.16756e-07
2.04052e-06
-2.10122e-07
2.0455e-06
1.42617e-07
2.03937e-06
-1.99956e-07
2.04393e-06
9.35796e-08
2.03928e-06
-1.22865e-07
2.04499e-06
1.01488e-07
2.04094e-06
-7.45421e-08
2.04572e-06
5.91046e-08
2.0411e-06
-7.77556e-08
2.0449e-06
1.1571e-08
2.03992e-06
-7.54997e-08
2.04339e-06
1.89466e-09
2.03927e-06
-4.69267e-08
2.04264e-06
3.2922e-09
2.03977e-06
-2.04835e-08
2.0424e-06
1.09776e-09
2.04052e-06
-1.05843e-08
2.04187e-06
-7.83728e-09
2.04078e-06
-1.14564e-08
2.04061e-06
-1.42117e-08
2.04e-06
-1.11919e-08
2.03846e-06
-1.26269e-08
2.03772e-06
-5.51803e-09
2.0345e-06
-1.62457e-09
2.03338e-06
9.93039e-09
2.02633e-06
2.94434e-08
2.0148e-06
6.29732e-08
1.21251e-07
1.98157e-06
2.13718e-06
-2.88051e-07
2.1439e-06
2.10041e-07
2.13783e-06
-2.04055e-07
2.14334e-06
1.37113e-07
2.1366e-06
-1.9322e-07
2.14167e-06
8.85094e-08
2.13651e-06
-1.17704e-07
2.14268e-06
9.53202e-08
2.13819e-06
-7.00559e-08
2.1433e-06
5.39943e-08
2.13834e-06
-7.2797e-08
2.14234e-06
7.56829e-09
2.13717e-06
-7.03256e-08
2.14073e-06
-1.66686e-09
2.13667e-06
-4.2868e-08
2.13996e-06
1.64325e-12
2.13735e-06
-1.78738e-08
2.13969e-06
-1.24296e-09
2.13822e-06
-9.11352e-09
2.13913e-06
-8.74717e-09
2.13833e-06
-1.06532e-08
2.13789e-06
-1.37684e-08
2.13703e-06
-1.03372e-08
2.13596e-06
-1.15504e-08
2.13366e-06
-3.21794e-09
2.13183e-06
2.00633e-10
2.1259e-06
1.58587e-08
2.13185e-06
2.34943e-08
2.15552e-06
3.92993e-08
4.64826e-08
2.23029e-06
2.23921e-06
-2.8077e-07
2.24665e-06
2.02603e-07
2.23984e-06
-1.97246e-07
2.24593e-06
1.31023e-07
2.23855e-06
-1.85843e-07
2.24418e-06
8.28808e-08
2.2385e-06
-1.12026e-07
2.24513e-06
8.8689e-08
2.24022e-06
-6.51456e-08
2.24565e-06
4.85709e-08
2.2404e-06
-6.75531e-08
2.24456e-06
3.41365e-09
2.23929e-06
-6.50596e-08
2.24283e-06
-5.20781e-09
2.23897e-06
-3.90054e-08
2.24201e-06
-3.03727e-09
2.23983e-06
-1.56942e-08
2.24168e-06
-3.09409e-09
2.24082e-06
-8.25009e-09
2.24104e-06
-8.96981e-09
2.24087e-06
-1.04874e-08
2.23961e-06
-1.25013e-08
2.23953e-06
-1.02567e-08
2.23717e-06
-9.19972e-09
2.23632e-06
-2.36445e-09
2.23286e-06
3.65855e-09
2.23015e-06
1.85731e-08
2.22316e-06
3.04809e-08
2.20689e-06
5.55736e-08
7.72764e-08
2.17609e-06
2.34612e-06
-2.7301e-07
2.35434e-06
1.94377e-07
2.34674e-06
-1.89649e-07
2.35346e-06
1.24303e-07
2.34542e-06
-1.77796e-07
2.35163e-06
7.66692e-08
2.34544e-06
-1.05833e-07
2.35252e-06
8.16043e-08
2.34722e-06
-5.98423e-08
2.35291e-06
4.28751e-08
2.34746e-06
-6.21033e-08
2.35168e-06
-8.06575e-10
2.34644e-06
-5.98174e-08
2.34983e-06
-8.59465e-09
2.34631e-06
-3.54841e-08
2.34892e-06
-5.6477e-09
2.34731e-06
-1.40899e-08
2.34853e-06
-4.3114e-09
2.34838e-06
-8.10172e-09
2.34783e-06
-8.41351e-09
2.3484e-06
-1.10643e-08
2.34616e-06
-1.02625e-08
2.34719e-06
-1.12817e-08
2.34311e-06
-5.11754e-09
2.34444e-06
-3.69744e-09
2.33849e-06
9.61332e-09
2.33914e-06
1.79201e-08
2.32435e-06
4.52696e-08
2.31443e-06
6.54967e-08
1.01429e-07
2.29028e-06
2.45814e-06
-2.64757e-07
2.4672e-06
1.85321e-07
2.45878e-06
-1.8123e-07
2.46616e-06
1.16927e-07
2.45743e-06
-1.69068e-07
2.46422e-06
6.98795e-08
2.45753e-06
-9.91486e-08
2.46503e-06
7.41067e-08
2.4594e-06
-5.421e-08
2.46529e-06
3.69823e-08
2.45975e-06
-5.65608e-08
2.46391e-06
-4.96937e-09
2.45883e-06
-5.47326e-08
2.46192e-06
-1.16918e-08
2.45885e-06
-3.24109e-08
2.46095e-06
-7.74439e-09
2.4599e-06
-1.30444e-08
2.46064e-06
-5.04693e-09
2.46081e-06
-8.27877e-09
2.46021e-06
-7.80712e-09
2.46039e-06
-1.12458e-08
2.45899e-06
-8.86388e-09
2.45848e-06
-1.07756e-08
2.45631e-06
-2.94715e-09
2.4545e-06
-1.88102e-09
2.45125e-06
1.28617e-08
2.44842e-06
2.07455e-08
2.44028e-06
5.3409e-08
2.42186e-06
8.39234e-08
1.35498e-07
2.38779e-06
2.57554e-06
-2.56006e-07
2.58546e-06
1.75406e-07
2.5762e-06
-1.7197e-07
2.58423e-06
1.0889e-07
2.57483e-06
-1.59664e-07
2.58217e-06
6.25402e-08
2.57504e-06
-9.20164e-08
2.58288e-06
6.62637e-08
2.57701e-06
-4.83412e-08
2.58299e-06
3.09995e-08
2.5775e-06
-5.10673e-08
2.58146e-06
-8.92402e-09
2.57668e-06
-4.99546e-08
2.57935e-06
-1.43611e-08
2.57682e-06
-2.98849e-08
2.57834e-06
-9.26797e-09
2.5778e-06
-1.25039e-08
2.57824e-06
-5.48569e-09
2.57843e-06
-8.46508e-09
2.57822e-06
-7.59722e-09
2.57741e-06
-1.04411e-08
2.5776e-06
-9.05339e-09
2.57461e-06
-7.77708e-09
2.57564e-06
-3.98384e-09
2.56968e-06
4.08271e-09
2.56903e-06
1.35092e-08
2.56064e-06
2.91361e-08
2.57775e-06
3.63039e-08
2.61339e-06
4.82745e-08
4.88654e-08
2.70003e-06
2.69858e-06
-2.46754e-07
2.70937e-06
1.64616e-07
2.69926e-06
-1.61864e-07
2.70795e-06
1.00201e-07
2.6979e-06
-1.49611e-07
2.70573e-06
5.47032e-08
2.69823e-06
-8.45113e-08
2.70631e-06
5.81793e-08
2.70034e-06
-4.23674e-08
2.70626e-06
2.50808e-08
2.70101e-06
-4.58196e-08
2.70453e-06
-1.24481e-08
2.70029e-06
-4.57065e-08
2.70232e-06
-1.63969e-08
2.70053e-06
-2.80902e-08
2.70128e-06
-1.00202e-08
2.70146e-06
-1.26875e-08
2.70124e-06
-5.26245e-09
2.70212e-06
-9.34511e-09
2.70101e-06
-6.48385e-09
2.7014e-06
-1.08367e-08
2.69983e-06
-7.48436e-09
2.69911e-06
-7.05209e-09
2.69697e-06
-1.84283e-09
2.69457e-06
6.48302e-09
2.6917e-06
1.63772e-08
2.68776e-06
3.30791e-08
2.67879e-06
4.52726e-08
2.65728e-06
6.978e-08
8.35081e-08
2.62264e-06
2.82751e-06
-2.36996e-07
2.83918e-06
1.52943e-07
2.82824e-06
-1.50915e-07
2.83756e-06
9.08785e-08
2.82689e-06
-1.38942e-07
2.83517e-06
4.64271e-08
2.82736e-06
-7.67104e-08
2.83559e-06
4.99517e-08
2.82962e-06
-3.63957e-08
2.83536e-06
1.93369e-08
2.83047e-06
-4.09297e-08
2.83348e-06
-1.54572e-08
2.8298e-06
-4.20189e-08
2.83125e-06
-1.7851e-08
2.83004e-06
-2.68786e-08
2.83024e-06
-1.02179e-08
2.8309e-06
-1.33533e-08
2.83021e-06
-4.56828e-09
2.83172e-06
-1.08621e-08
2.82952e-06
-4.27565e-09
2.83157e-06
-1.28862e-08
2.82742e-06
-3.33772e-09
2.83014e-06
-9.7715e-09
2.82386e-06
4.43702e-09
2.82705e-06
3.29163e-09
2.8193e-06
2.41297e-08
2.82011e-06
3.2263e-08
2.79957e-06
6.58139e-08
2.78966e-06
7.96946e-08
1.08102e-07
2.76506e-06
2.96264e-06
-2.26741e-07
2.97517e-06
1.40409e-07
2.96343e-06
-1.39167e-07
2.97332e-06
8.09874e-08
2.96211e-06
-1.27736e-07
2.97071e-06
3.78286e-08
2.96276e-06
-6.87588e-08
2.97094e-06
4.1774e-08
2.96522e-06
-3.06787e-08
2.97048e-06
1.40748e-08
2.96633e-06
-3.67792e-08
2.96836e-06
-1.74902e-08
2.96572e-06
-3.93723e-08
2.96617e-06
-1.8306e-08
2.96585e-06
-2.65524e-08
2.96536e-06
-9.73309e-09
2.96635e-06
-1.43398e-08
2.96582e-06
-4.03901e-09
2.96666e-06
-1.17074e-08
2.96569e-06
-3.30036e-09
2.9659e-06
-1.31009e-08
2.96411e-06
-1.54919e-09
2.96338e-06
-9.03444e-09
2.96055e-06
7.26517e-09
2.95839e-06
5.44887e-09
2.95586e-06
2.66568e-08
2.95278e-06
3.53491e-08
2.94177e-06
7.68252e-08
2.916e-06
1.05465e-07
1.458e-07
2.8783e-06
3.10428e-06
-2.16012e-07
3.11763e-06
1.27056e-07
3.10515e-06
-1.26689e-07
3.11553e-06
7.06104e-08
3.10388e-06
-1.16085e-07
3.11268e-06
2.90242e-08
3.1047e-06
-6.07811e-08
3.11271e-06
3.37674e-08
3.10731e-06
-2.52752e-08
3.11213e-06
9.25208e-09
3.10855e-06
-3.31952e-08
3.11e-06
-1.89453e-08
3.10761e-06
-3.69836e-08
3.10843e-06
-1.91209e-08
3.10689e-06
-2.50145e-08
3.10856e-06
-1.14034e-08
3.10634e-06
-1.21169e-08
3.11009e-06
-7.789e-09
3.10541e-06
-7.03186e-09
3.11099e-06
-8.8831e-09
3.1033e-06
-5.40859e-09
3.11071e-06
-8.96219e-09
3.10008e-06
1.59881e-09
3.10825e-06
-9.03795e-10
3.09528e-06
1.84192e-08
3.09889e-06
2.30497e-08
3.08785e-06
4.63835e-08
3.12069e-06
4.39904e-08
3.16671e-06
5.94427e-08
5.38915e-08
3.25862e-06
3.25274e-06
-2.04843e-07
3.26685e-06
1.12947e-07
3.25375e-06
-1.13588e-07
3.26449e-06
5.9868e-08
3.25253e-06
-1.04123e-07
3.26137e-06
2.01815e-08
3.25357e-06
-5.29748e-08
3.26116e-06
2.61771e-08
3.25636e-06
-2.04765e-08
3.26041e-06
5.19868e-09
3.25781e-06
-3.05963e-08
3.25802e-06
-1.91537e-08
3.257e-06
-3.59617e-08
3.25636e-06
-1.84872e-08
3.2566e-06
-2.5245e-08
3.2557e-06
-1.05124e-08
3.25733e-06
-1.37414e-08
3.25568e-06
-6.14089e-09
3.25819e-06
-9.54528e-09
3.25475e-06
-5.43665e-09
3.25786e-06
-8.52221e-09
3.25245e-06
-3.55548e-09
3.25574e-06
-1.68843e-09
3.2486e-06
6.23899e-09
3.25223e-06
1.47854e-08
3.246e-06
2.92812e-08
3.2471e-06
4.52838e-08
3.22649e-06
6.46012e-08
3.20252e-06
8.34109e-08
9.54896e-08
3.16092e-06
3.40835e-06
-1.93266e-07
3.42314e-06
9.81638e-08
3.40955e-06
-1.00002e-07
3.42051e-06
4.89086e-08
3.40839e-06
-9.20026e-08
3.41708e-06
1.14942e-08
3.40966e-06
-4.55591e-08
3.41658e-06
1.92561e-08
3.41266e-06
-1.65568e-08
3.41568e-06
2.18382e-09
3.41435e-06
-2.92634e-08
3.41297e-06
-1.77748e-08
3.41369e-06
-3.66831e-08
3.41134e-06
-1.61414e-08
3.41326e-06
-2.71584e-08
3.41055e-06
-7.80383e-09
3.41416e-06
-1.73558e-08
3.41034e-06
-2.31845e-09
3.41501e-06
-1.42208e-08
3.40943e-06
1.4872e-10
3.41452e-06
-1.36145e-08
3.40717e-06
3.79742e-09
3.41238e-06
-6.90117e-09
3.40348e-06
1.5136e-08
3.40837e-06
9.89916e-09
3.402e-06
3.56555e-08
3.40648e-06
4.08039e-08
3.38206e-06
8.90219e-08
3.35468e-06
1.10786e-07
1.39721e-07
3.31045e-06
3.57149e-06
-1.81341e-07
3.58682e-06
8.28354e-08
3.57294e-06
-8.61236e-08
3.58393e-06
3.79165e-08
3.5718e-06
-7.98718e-08
3.58021e-06
3.08515e-09
3.57319e-06
-3.85469e-08
3.57963e-06
1.28239e-08
3.576e-06
-1.29263e-08
3.57922e-06
-1.03878e-09
3.57693e-06
-2.69746e-08
3.57745e-06
-1.82966e-08
3.57507e-06
-3.43046e-08
3.5773e-06
-1.83719e-08
3.57279e-06
-2.26476e-08
3.57857e-06
-1.35842e-08
3.57141e-06
-1.01969e-08
3.58064e-06
-1.15454e-08
3.5696e-06
-3.17696e-09
3.58225e-06
-1.25081e-08
3.56677e-06
1.87353e-09
3.58236e-06
-1.17978e-08
3.56372e-06
1.17383e-08
3.58017e-06
-1.31561e-09
3.55921e-06
3.08666e-08
3.56955e-06
2.53133e-08
3.5551e-06
5.52555e-08
3.60343e-06
4.06933e-08
3.6556e-06
5.86137e-08
5.21286e-08
3.74319e-06
3.74252e-06
-1.69151e-07
3.75823e-06
6.71241e-08
3.74432e-06
-7.2213e-08
3.75508e-06
2.71478e-08
3.74317e-06
-6.79594e-08
3.75104e-06
-4.7847e-09
3.74472e-06
-3.22245e-08
3.75027e-06
7.27435e-09
3.74754e-06
-1.01924e-08
3.74999e-06
-3.49827e-09
3.74848e-06
-2.54638e-08
3.74751e-06
-1.7325e-08
3.74819e-06
-3.49778e-08
3.74515e-06
-1.53316e-08
3.74855e-06
-2.60558e-08
3.74358e-06
-8.61176e-09
3.75009e-06
-1.67096e-08
3.74283e-06
-4.27761e-09
3.75109e-06
-1.14399e-08
3.74187e-06
-3.29293e-09
3.75016e-06
-6.41193e-09
3.73999e-06
-1.62424e-09
3.74719e-06
4.53239e-09
3.73753e-06
8.34191e-09
3.74504e-06
2.33619e-08
3.73811e-06
3.22438e-08
3.73755e-06
5.58104e-08
3.71436e-06
6.38852e-08
3.68367e-06
8.93001e-08
1.01176e-07
3.63463e-06
3.9218e-06
-1.56762e-07
3.9377e-06
5.12243e-08
3.92411e-06
-5.86238e-08
3.9343e-06
1.69554e-08
3.92293e-06
-5.6587e-08
3.92987e-06
-1.17238e-08
3.9246e-06
-2.69609e-08
3.9289e-06
2.97787e-09
3.92739e-06
-8.68037e-09
3.92897e-06
-5.07612e-09
3.9279e-06
-2.43942e-08
3.92654e-06
-1.59658e-08
3.92804e-06
-3.64808e-08
3.92342e-06
-1.07103e-08
3.92935e-06
-3.19865e-08
3.92094e-06
-2.02639e-10
3.93175e-06
-2.75145e-08
3.91904e-06
8.4315e-09
3.93409e-06
-2.64909e-08
3.91661e-06
1.41817e-08
3.93505e-06
-2.48527e-08
3.91369e-06
1.97358e-08
3.9342e-06
-1.59765e-08
3.91187e-06
3.06722e-08
3.9343e-06
9.30336e-10
3.91576e-06
5.07915e-08
3.93642e-06
3.51494e-08
3.89083e-06
1.09477e-07
3.85798e-06
1.2215e-07
1.48927e-07
3.81023e-06
4.10976e-06
-1.44271e-07
4.12562e-06
3.53614e-08
4.11268e-06
-4.56844e-08
4.12209e-06
7.54825e-09
4.11119e-06
-4.56816e-08
4.11762e-06
-1.81592e-08
4.11241e-06
-2.17547e-08
4.11726e-06
-1.87045e-09
4.11406e-06
-5.47821e-09
4.11916e-06
-1.01758e-08
4.11197e-06
-1.72086e-08
4.11993e-06
-2.39234e-08
4.10862e-06
-2.51691e-08
4.12041e-06
-2.25008e-08
4.10599e-06
-1.757e-08
4.12184e-06
-1.60433e-08
4.10454e-06
-1.02175e-08
4.12331e-06
-1.03421e-08
4.10381e-06
-6.99125e-09
4.12334e-06
-5.34906e-09
4.10275e-06
-4.25798e-09
4.12144e-06
1.03948e-09
4.10076e-06
4.7063e-09
4.11687e-06
1.45661e-08
4.09783e-06
1.99675e-08
4.11581e-06
3.28148e-08
4.1072e-06
4.3756e-08
4.15783e-06
5.88497e-08
4.20989e-06
7.00927e-08
7.89223e-08
4.27989e-06
4.30686e-06
-1.31826e-07
4.32236e-06
1.98633e-08
4.3107e-06
-3.40294e-08
4.31863e-06
-3.84039e-10
4.30896e-06
-3.60099e-08
4.3138e-06
-2.30016e-08
4.31011e-06
-1.80639e-08
4.31311e-06
-4.86538e-09
4.31214e-06
-4.51393e-09
4.31483e-06
-1.28652e-08
4.30987e-06
-1.2246e-08
4.31593e-06
-2.9987e-08
4.30621e-06
-1.54479e-08
4.31658e-06
-3.28722e-08
4.30361e-06
-4.59957e-09
4.31815e-06
-3.05787e-08
4.30179e-06
6.13719e-09
4.32015e-06
-2.86953e-08
4.30048e-06
1.26765e-08
4.32069e-06
-2.55588e-08
4.29895e-06
1.748e-08
4.31959e-06
-1.96034e-08
4.29688e-06
2.74227e-08
4.31527e-06
-3.82937e-09
4.29277e-06
4.24682e-08
4.31236e-06
1.32231e-08
4.31057e-06
4.55478e-08
4.36084e-06
8.5795e-09
4.4091e-06
2.18326e-08
-2.32382e-09
4.49035e-06
4.51357e-06
-1.19618e-07
4.52816e-06
5.26841e-09
4.51891e-06
-2.47822e-08
4.52441e-06
-5.87743e-09
4.51642e-06
-2.80243e-08
4.51948e-06
-2.60589e-08
4.51701e-06
-1.55942e-08
4.51853e-06
-6.3906e-09
4.52e-06
-5.98438e-09
4.51854e-06
-1.14039e-08
4.52023e-06
-1.39371e-08
4.51666e-06
-2.64131e-08
4.5196e-06
-1.83873e-08
4.51425e-06
-2.75251e-08
4.52006e-06
-1.04093e-08
4.51292e-06
-2.34366e-08
4.52118e-06
-2.11983e-09
4.51268e-06
-2.01972e-08
4.52141e-06
3.94241e-09
4.51169e-06
-1.58322e-08
4.51958e-06
9.58574e-09
4.50888e-06
-8.90019e-09
4.51446e-06
2.18421e-08
4.50519e-06
5.4374e-09
4.51322e-06
3.4441e-08
4.5055e-06
2.09413e-08
4.50868e-06
4.23691e-08
4.48033e-06
3.69336e-08
4.44218e-06
5.99787e-08
5.51085e-08
4.38475e-06
4.7301e-06
-1.07603e-07
4.74415e-06
-8.77851e-09
4.7358e-06
-1.64399e-08
4.74083e-06
-1.09019e-08
4.73287e-06
-2.00695e-08
4.73618e-06
-2.93647e-08
4.73265e-06
-1.20649e-08
4.73541e-06
-9.15423e-09
4.73594e-06
-6.50796e-09
4.73409e-06
-9.55291e-09
4.73812e-06
-1.79738e-08
4.73038e-06
-1.86704e-08
4.73895e-06
-2.69557e-08
4.72718e-06
-1.57603e-08
4.73978e-06
-2.30008e-08
4.72533e-06
-8.99205e-09
4.7415e-06
-1.82853e-08
4.72455e-06
-3.2474e-09
4.74214e-06
-1.36505e-08
4.72395e-06
2.3546e-09
4.74139e-06
-7.8509e-09
4.72328e-06
9.21248e-09
4.74054e-06
4.58091e-09
4.72358e-06
2.24002e-08
4.73744e-06
2.05755e-08
4.71506e-06
4.33181e-08
4.71178e-06
4.56541e-08
4.68711e-06
6.15991e-08
4.68068e-06
6.64116e-08
8.84023e-08
4.64739e-06
4.95744e-06
-9.62437e-08
4.969e-06
-2.03377e-08
4.96601e-06
-1.34497e-08
4.96477e-06
-9.66247e-09
4.96403e-06
-1.93268e-08
4.95927e-06
-2.46138e-08
4.96225e-06
-1.50373e-08
4.95957e-06
-6.48015e-09
4.9641e-06
-1.10358e-08
4.96003e-06
-5.48682e-09
4.9645e-06
-2.24418e-08
4.95811e-06
-1.22737e-08
4.96339e-06
-3.22377e-08
4.95681e-06
-9.18517e-09
4.96228e-06
-2.8471e-08
4.95665e-06
-3.36099e-09
4.9624e-06
-2.40304e-08
4.95644e-06
2.71191e-09
4.96124e-06
-1.84515e-08
4.95476e-06
8.83867e-09
4.95715e-06
-1.02443e-08
4.95045e-06
1.59117e-08
4.95167e-06
3.35985e-09
4.94763e-06
2.6436e-08
4.94796e-06
2.02507e-08
4.94974e-06
4.15419e-08
4.9472e-06
4.81912e-08
4.9186e-06
9.02018e-08
4.87492e-06
1.10087e-07
1.24548e-07
4.83877e-06
5.19532e-06
-8.52494e-08
5.20648e-06
-3.14974e-08
5.20214e-06
-9.10825e-09
5.20458e-06
-1.21007e-08
5.19828e-06
-1.30308e-08
5.20145e-06
-2.7782e-08
5.19409e-06
-7.6716e-09
5.20471e-06
-1.71048e-08
5.19253e-06
1.1469e-09
5.20793e-06
-2.08904e-08
5.1903e-06
-4.81452e-09
5.20855e-06
-3.05233e-08
5.18711e-06
-1.07918e-08
5.20877e-06
-3.08434e-08
5.18479e-06
-4.49632e-09
5.20931e-06
-2.78827e-08
5.18461e-06
6.68552e-10
5.20933e-06
-2.20076e-08
5.18514e-06
5.74611e-09
5.20901e-06
-1.50401e-08
5.18616e-06
1.26122e-08
5.20598e-06
-3.9105e-09
5.18269e-06
2.66501e-08
5.1937e-06
1.54211e-08
5.17269e-06
4.12617e-08
5.18444e-06
2.97954e-08
5.19051e-06
4.21231e-08
5.26197e-06
1.87389e-08
5.34915e-06
2.29081e-08
2.12505e-08
5.45245e-06
5.44519e-06
-7.52463e-08
5.45223e-06
-3.85449e-08
5.45514e-06
-1.20156e-08
5.44813e-06
-5.09386e-09
5.45452e-06
-1.94163e-08
5.44291e-06
-1.61746e-08
5.45156e-06
-1.63165e-08
5.44413e-06
-9.68253e-09
5.45141e-06
-6.12416e-09
5.4464e-06
-1.58881e-08
5.4498e-06
-8.21291e-09
5.44603e-06
-2.67516e-08
5.44753e-06
-1.22896e-08
5.44467e-06
-2.79828e-08
5.4466e-06
-6.42619e-09
5.44388e-06
-2.51613e-08
5.44518e-06
-6.32357e-10
5.44256e-06
-1.93933e-08
5.44338e-06
4.93098e-09
5.44019e-06
-1.18488e-08
5.44022e-06
1.25795e-08
5.43615e-06
1.56295e-10
5.4364e-06
2.63978e-08
5.43411e-06
1.77138e-08
5.43574e-06
3.96367e-08
5.43435e-06
3.11799e-08
5.42316e-06
5.33117e-08
5.39725e-06
4.46491e-08
5.35828e-06
6.18774e-08
5.82771e-08
5.32126e-06
5.70652e-06
-6.58077e-08
5.71306e-06
-4.50856e-08
5.71386e-06
-1.28162e-08
5.71255e-06
-3.78402e-09
5.71266e-06
-1.95252e-08
5.7072e-06
-1.0718e-08
5.7096e-06
-1.8712e-08
5.7065e-06
-6.58215e-09
5.711e-06
-1.06241e-08
5.70659e-06
-1.14815e-08
5.71206e-06
-1.36849e-08
5.70462e-06
-1.93046e-08
5.71098e-06
-1.86505e-08
5.70253e-06
-1.95356e-08
5.71068e-06
-1.45758e-08
5.70154e-06
-1.60227e-08
5.71052e-06
-9.61453e-09
5.70143e-06
-1.03012e-08
5.70944e-06
-3.07978e-09
5.69993e-06
-2.33987e-09
5.70594e-06
6.5709e-09
5.69773e-06
8.36611e-09
5.70302e-06
2.11143e-08
5.69481e-06
2.59151e-08
5.69464e-06
3.98099e-08
5.68175e-06
4.40711e-08
5.67688e-06
5.81847e-08
5.65927e-06
6.22555e-08
5.64444e-06
7.67093e-08
8.17751e-08
5.62094e-06
5.98071e-06
-5.7323e-08
5.9847e-06
-4.90729e-08
5.98752e-06
-1.56419e-08
5.98506e-06
-1.32519e-09
5.9877e-06
-2.21591e-08
5.97936e-06
-2.38322e-09
5.98508e-06
-2.44268e-08
5.97757e-06
9.19301e-10
5.98716e-06
-2.02113e-08
5.97711e-06
-1.42733e-09
5.98801e-06
-2.45878e-08
5.97598e-06
-7.27327e-09
5.98537e-06
-2.80438e-08
5.97566e-06
-9.8267e-09
5.98332e-06
-2.22291e-08
5.97531e-06
-8.01458e-09
5.98097e-06
-1.5271e-08
5.97452e-06
-3.85684e-09
5.97719e-06
-5.74727e-09
5.97205e-06
2.7942e-09
5.97435e-06
4.2774e-09
5.9705e-06
1.22167e-08
5.97369e-06
1.79167e-08
5.96866e-06
3.09518e-08
5.96754e-06
4.09312e-08
5.9554e-06
5.62089e-08
5.94918e-06
6.44031e-08
5.93177e-06
7.96676e-08
5.91927e-06
8.92123e-08
9.74816e-08
5.90356e-06
6.26814e-06
-4.99781e-08
6.26676e-06
-4.7694e-08
6.27573e-06
-2.46124e-08
6.26876e-06
5.65005e-09
6.27573e-06
-2.91274e-08
6.26499e-06
8.35028e-09
6.27241e-06
-3.18377e-08
6.26372e-06
9.60181e-09
6.2738e-06
-3.02857e-08
6.26362e-06
8.74771e-09
6.27404e-06
-3.50046e-08
6.26262e-06
4.14291e-09
6.27195e-06
-3.73735e-08
6.26185e-06
2.80473e-10
6.27029e-06
-3.06697e-08
6.26032e-06
1.95459e-09
6.26809e-06
-2.30432e-08
6.25877e-06
5.45986e-09
6.26512e-06
-1.20993e-08
6.25671e-06
1.12117e-08
6.26101e-06
-2.14877e-11
6.25421e-06
1.90147e-08
6.25646e-06
1.56677e-08
6.25386e-06
3.35502e-08
6.26146e-06
3.33259e-08
6.25688e-06
6.07901e-08
6.24735e-06
7.39331e-08
6.21242e-06
1.14602e-07
6.16367e-06
1.37956e-07
1.23542e-07
6.13761e-06
6.56798e-06
-4.24879e-08
6.57467e-06
-5.43871e-08
6.56392e-06
-1.38572e-08
6.5801e-06
-1.05376e-08
6.55987e-06
-8.89654e-09
6.58018e-06
-1.19572e-08
6.55734e-06
-8.99754e-09
6.57966e-06
-1.27166e-08
6.55808e-06
-8.70154e-09
6.58056e-06
-1.37339e-08
6.557e-06
-1.14466e-08
6.57907e-06
-1.79276e-08
6.55618e-06
-1.44827e-08
6.57653e-06
-2.00665e-08
6.55596e-06
-1.01058e-08
6.57517e-06
-1.72533e-08
6.55682e-06
-4.69338e-09
6.57343e-06
-1.11458e-08
6.55761e-06
3.71989e-09
6.56975e-06
-9.30147e-10
6.55595e-06
1.37817e-08
6.56277e-06
1.21917e-08
6.54876e-06
2.96729e-08
6.55117e-06
3.11439e-08
6.5417e-06
4.27915e-08
6.56913e-06
3.33633e-08
6.60397e-06
3.9091e-08
6.68482e-06
3.37556e-08
6.7852e-06
3.7577e-08
5.36458e-08
6.85509e-06
6.88501e-06
-3.77067e-08
6.87575e-06
-4.51279e-08
6.89161e-06
-2.97186e-08
6.88028e-06
7.94529e-10
6.89101e-06
-1.96225e-08
6.87921e-06
-1.60086e-10
6.88877e-06
-1.85593e-08
6.8772e-06
-1.14736e-09
6.88986e-06
-2.1362e-08
6.87913e-06
-3.00664e-09
6.88676e-06
-1.90684e-08
6.87869e-06
-9.85776e-09
6.88501e-06
-2.08062e-08
6.87651e-06
-1.15707e-08
6.88348e-06
-1.70756e-08
6.87513e-06
-8.89498e-09
6.88031e-06
-9.88175e-09
6.87179e-06
-2.61809e-09
6.87557e-06
-6.69517e-11
6.86873e-06
5.91172e-09
6.87303e-06
9.4842e-09
6.87162e-06
1.35953e-08
6.88493e-06
1.63672e-08
6.89558e-06
2.04919e-08
6.90724e-06
3.11335e-08
6.89368e-06
4.6923e-08
6.86674e-06
6.60278e-08
6.81604e-06
8.44623e-08
6.75045e-06
1.03165e-07
7.59899e-08
6.72811e-06
7.21298e-06
-3.15507e-08
7.22034e-06
-5.24923e-08
7.20344e-06
-1.28154e-08
7.22731e-06
-2.30697e-08
7.20004e-06
7.6404e-09
7.22744e-06
-2.75604e-08
7.1989e-06
9.98635e-09
7.22589e-06
-2.81356e-08
7.20083e-06
3.68889e-09
7.22526e-06
-2.74353e-08
7.20095e-06
5.24167e-09
7.22188e-06
-3.0788e-08
7.20097e-06
1.11188e-10
7.21852e-06
-2.91264e-08
7.20142e-06
2.79958e-11
7.21667e-06
-2.41473e-08
7.20208e-06
4.71294e-09
7.2125e-06
-1.30418e-08
7.20029e-06
1.21463e-08
7.20765e-06
-1.449e-09
7.19788e-06
1.92499e-08
7.20243e-06
9.04317e-09
7.18989e-06
2.89087e-08
7.19067e-06
1.97138e-08
7.19124e-06