/*--------------------------------*- C++ -*----------------------------------*\
| =========                 |                                                 |
| \\      /  F ield         | OpenFOAM: The Open Source CFD Toolbox           |
|  \\    /   O peration     | Version:  v2006                                 |
|   \\  /    A nd           | Website:  www.openfoam.com                      |
|    \\/     M anipulation  |                                                 |
\*---------------------------------------------------------------------------*/
FoamFile
{
    version     2.0;
    format      ascii;
    class       volVectorField;
    location    "0.5";
    object      U;
}
// * * * * * * * * * * * * * * * * * * * * * * * * * * * * * * * * * * * * * //

dimensions      [0 1 -1 0 0 0 0];


internalField   nonuniform List<vector> 
26400
(
(0.904262 -0.00481522 0)
(1.0968 0.00445687 0)
(0.907191 -0.00382616 0)
(1.09651 0.00360406 0)
(0.916164 -0.00421452 0)
(1.09763 0.00277908 0)
(0.920703 -0.00320801 0)
(1.09443 0.00333339 0)
(0.924584 -0.00238762 0)
(1.09401 0.00269124 0)
(0.931651 -0.00262506 0)
(1.09672 0.00160266 0)
(0.93908 -0.00307074 0)
(1.09861 0.00117431 0)
(0.942064 -0.00281464 0)
(1.09759 0.00105507 0)
(0.941361 -0.00224096 0)
(1.09571 0.000941611 0)
(0.939973 -0.00190883 0)
(1.0947 0.000714391 0)
(0.939339 -0.00174591 0)
(1.09584 0.000468519 0)
(0.939261 -0.00155103 0)
(1.09882 0.00032684 0)
(0.938484 -0.00123946 0)
(1.10273 0.000256891 0)
(0.935755 -0.000628522 0)
(1.10667 8.92772e-05 0)
(0.929288 0.00118985 0)
(1.10907 0.00043224 0)
(0.9114 -0.00486088 0)
(1.09076 0.00447511 0)
(0.917081 -0.00389578 0)
(1.09029 0.00358038 0)
(0.927576 -0.00430926 0)
(1.09082 0.00279088 0)
(0.933438 -0.0032482 0)
(1.08674 0.00336633 0)
(0.938923 -0.00245628 0)
(1.08475 0.00267364 0)
(0.947431 -0.00275601 0)
(1.08549 0.00155423 0)
(0.95631 -0.00319597 0)
(1.08523 0.00118973 0)
(0.961442 -0.00287771 0)
(1.08155 0.00114549 0)
(0.963771 -0.00226092 0)
(1.07609 0.00105511 0)
(0.966384 -0.00193134 0)
(1.07029 0.000800317 0)
(0.970998 -0.00181088 0)
(1.06503 0.00051858 0)
(0.977968 -0.00165341 0)
(1.05949 0.00035095 0)
(0.986726 -0.00133993 0)
(1.05209 0.000239023 0)
(0.996731 -0.000617245 0)
(1.04114 0.000145249 0)
(1.00723 0.00200861 0)
(1.02356 0.00148329 0)
(0.924052 -0.00491164 0)
(1.0785 0.00446691 0)
(0.933073 -0.00396511 0)
(1.07758 0.00352982 0)
(0.94534 -0.00438661 0)
(1.07699 0.00278889 0)
(0.953212 -0.00326349 0)
(1.07182 0.00336124 0)
(0.960634 -0.00249473 0)
(1.06788 0.00260513 0)
(0.970249 -0.00283762 0)
(1.06618 0.00146143 0)
(0.980007 -0.00324121 0)
(1.06358 0.00115056 0)
(0.986689 -0.00283349 0)
(1.05764 0.00114317 0)
(0.990879 -0.00214717 0)
(1.05002 0.00102123 0)
(0.994965 -0.00177775 0)
(1.04236 0.000668345 0)
(1.00018 -0.00162947 0)
(1.03606 0.000264997 0)
(1.00645 -0.00141421 0)
(1.031 -2.03864e-05 0)
(1.01257 -0.00100708 0)
(1.02655 -0.000209078 0)
(1.01722 -0.000248554 0)
(1.02227 -8.79754e-06 0)
(1.01879 0.0021215 0)
(1.01805 0.0037178 0)
(0.940024 -0.00494795 0)
(1.06187 0.00439886 0)
(0.951031 -0.00400349 0)
(1.06037 0.00343775 0)
(0.963935 -0.00441579 0)
(1.05867 0.00272778 0)
(0.972963 -0.00323465 0)
(1.05318 0.00328855 0)
(0.981112 -0.00246334 0)
(1.04832 0.00248515 0)
(0.990082 -0.00282583 0)
(1.04544 0.00131809 0)
(0.998664 -0.00319225 0)
(1.04225 0.00103183 0)
(1.00451 -0.00270454 0)
(1.03663 0.00104404 0)
(1.00768 -0.001957 0)
(1.03023 0.000905243 0)
(1.00987 -0.00156394 0)
(1.02461 0.000499986 0)
(1.01221 -0.00142857 0)
(1.0211 4.87167e-05 0)
(1.01491 -0.00122489 0)
(1.01946 -0.000249481 0)
(1.01716 -0.00082942 0)
(1.0187 -0.000348502 0)
(1.01819 -5.66342e-05 0)
(1.0179 8.67621e-05 0)
(1.01726 0.00240538 0)
(1.01657 0.00580568 0)
(0.956564 -0.00496182 0)
(1.04403 0.00428518 0)
(0.967373 -0.00400866 0)
(1.0422 0.00331171 0)
(0.979116 -0.0044058 0)
(1.03995 0.00261897 0)
(0.987601 -0.00317596 0)
(1.03533 0.0031761 0)
(0.994846 -0.0023897 0)
(1.03111 0.00234591 0)
(1.00162 -0.00276937 0)
(1.02859 0.00116223 0)
(1.00762 -0.00311485 0)
(1.02636 0.000896682 0)
(1.01137 -0.00256808 0)
(1.02256 0.000942472 0)
(1.01265 -0.00178196 0)
(1.01857 0.000821513 0)
(1.01282 -0.00139191 0)
(1.01541 0.000405631 0)
(1.01308 -0.00130098 0)
(1.01405 -6.16826e-05 0)
(1.01393 -0.00115241 0)
(1.01409 -0.000341152 0)
(1.0148 -0.000838833 0)
(1.01449 -0.000320915 0)
(1.01503 -0.000238545 0)
(1.01436 0.000819681 0)
(1.01414 0.0014402 0)
(1.01358 0.0083152 0)
(0.971174 -0.00495066 0)
(1.02809 0.00415399 0)
(0.97991 -0.00398903 0)
(1.0264 0.00317738 0)
(0.989097 -0.00436935 0)
(1.02428 0.00249711 0)
(0.99569 -0.00310957 0)
(1.02126 0.00305624 0)
(1.00115 -0.00230944 0)
(1.01855 0.00221817 0)
(1.00544 -0.0027049 0)
(1.01703 0.0010297 0)
(1.00892 -0.00303834 0)
(1.01594 0.000783885 0)
(1.0109 -0.00244792 0)
(1.01376 0.000864309 0)
(1.01106 -0.00163516 0)
(1.01153 0.000763151 0)
(1.01045 -0.00124772 0)
(1.00978 0.000332513 0)
(1.0101 -0.00118636 0)
(1.0093 -0.000166325 0)
(1.0105 -0.00107913 0)
(1.00975 -0.000447867 0)
(1.01107 -0.000797457 0)
(1.01027 -0.000395357 0)
(1.0112 -0.000182602 0)
(1.01015 0.000758424 0)
(1.01058 0.00231361 0)
(1.00978 0.00597861 0)
(0.982393 -0.0049171 0)
(1.01591 0.00402831 0)
(0.988182 -0.00395366 0)
(1.01473 0.00305744 0)
(0.994416 -0.00431706 0)
(1.0131 0.00238567 0)
(0.99871 -0.00304839 0)
(1.01161 0.0029453 0)
(1.00246 -0.00223658 0)
(1.01036 0.00211188 0)
(1.0049 -0.00263944 0)
(1.00962 0.000923878 0)
(1.00671 -0.00296052 0)
(1.00913 0.000686524 0)
(1.00766 -0.00233333 0)
(1.00781 0.000782807 0)
(1.00749 -0.00149243 0)
(1.00653 0.0006823 0)
(1.0069 -0.00109513 0)
(1.00547 0.000220388 0)
(1.00658 -0.00103494 0)
(1.00528 -0.000331849 0)
(1.0069 -0.000919883 0)
(1.00574 -0.000667041 0)
(1.00729 -0.000587536 0)
(1.00611 -0.000644253 0)
(1.00724 0.000130671 0)
(1.00596 0.000219879 0)
(1.00654 0.0037005 0)
(1.00575 0.00430663 0)
(0.989995 -0.00486666 0)
(1.0078 0.00391973 0)
(0.992983 -0.00390872 0)
(1.00722 0.00295953 0)
(0.99673 -0.00425526 0)
(1.00606 0.00229168 0)
(0.999069 -0.00299223 0)
(1.00555 0.00284518 0)
(1.00163 -0.00217033 0)
(1.00528 0.00202079 0)
(1.00302 -0.00257164 0)
(1.00491 0.000834539 0)
(1.00387 -0.00287868 0)
(1.00451 0.000598431 0)
(1.00429 -0.00222686 0)
(1.00353 0.000704568 0)
(1.00411 -0.00137714 0)
(1.00276 0.00061619 0)
(1.00376 -0.000989704 0)
(1.00209 0.000143732 0)
(1.00358 -0.000976632 0)
(1.00201 -0.000388108 0)
(1.0038 -0.000926026 0)
(1.00232 -0.00064787 0)
(1.00393 -0.000713874 0)
(1.00243 -0.000416329 0)
(1.0036 -0.000203121 0)
(1.00214 0.00141984 0)
(1.00289 0.00222017 0)
(1.002 0.00991107 0)
(0.994625 -0.00480437 0)
(1.00299 0.00382814 0)
(0.995522 -0.00385699 0)
(1.00286 0.00287894 0)
(0.997593 -0.00418518 0)
(1.00198 0.0022117 0)
(0.998584 -0.00293477 0)
(1.00193 0.00274925 0)
(1.00047 -0.00210537 0)
(1.0022 0.00193271 0)
(1.00131 -0.00249656 0)
(1.00191 0.000748826 0)
(1.00164 -0.00278452 0)
(1.00139 0.000509079 0)
(1.00172 -0.00211452 0)
(1.00052 0.000615035 0)
(1.0016 -0.00126061 0)
(1.00005 0.000527726 0)
(1.00149 -0.00087458 0)
(0.999617 5.09514e-05 0)
(1.00142 -0.000883868 0)
(0.999539 -0.000478173 0)
(1.00152 -0.000862533 0)
(0.999611 -0.000706075 0)
(1.00136 -0.000680873 0)
(0.999376 -0.000392404 0)
(1.00079 -0.000122218 0)
(0.998793 0.00152324 0)
(1.00027 0.0019199 0)
(0.998669 0.00969879 0)
(0.99722 -0.00473328 0)
(1.00037 0.00374651 0)
(0.996805 -0.00379864 0)
(1.00051 0.00280675 0)
(0.997922 -0.00410599 0)
(0.999758 0.00213833 0)
(0.998104 -0.00287101 0)
(0.999841 0.00265057 0)
(0.99961 -0.00203742 0)
(1.00037 0.0018398 0)
(1.00018 -0.00241037 0)
(1.00005 0.000658853 0)
(1.00019 -0.0026721 0)
(0.999376 0.000409407 0)
(1.00006 -0.00198449 0)
(0.998543 0.00049948 0)
(1 -0.00112179 0)
(0.998273 0.000396507 0)
(1.00008 -0.000727002 0)
(0.997973 -9.11274e-05 0)
(1.00008 -0.000720444 0)
(0.997822 -0.000646963 0)
(1.00005 -0.000669683 0)
(0.997629 -0.000920759 0)
(0.999613 -0.000355684 0)
(0.997054 -0.000759235 0)
(0.998743 0.000610526 0)
(0.996235 0.000226453 0)
(0.998133 0.00338235 0)
(0.996236 0.00218914 0)
(0.998596 -0.00465483 0)
(0.999019 0.00366694 0)
(0.997452 -0.00373267 0)
(0.999289 0.00273532 0)
(0.998087 -0.00401736 0)
(0.998593 0.00206543 0)
(0.997826 -0.00279946 0)
(0.99869 0.00254723 0)
(0.999118 -0.00196587 0)
(0.999336 0.00174377 0)
(0.999517 -0.00231833 0)
(0.998964 0.000572765 0)
(0.999351 -0.00255685 0)
(0.998174 0.000322521 0)
(0.999105 -0.00187127 0)
(0.99737 0.000411304 0)
(0.999111 -0.00103222 0)
(0.997229 0.000325962 0)
(0.99932 -0.000666199 0)
(0.996994 -0.0001374 0)
(0.999352 -0.00070159 0)
(0.996753 -0.000630057 0)
(0.999182 -0.000690624 0)
(0.996331 -0.000827752 0)
(0.9985 -0.000404286 0)
(0.995496 -0.000590158 0)
(0.997368 0.000659353 0)
(0.99451 0.000502219 0)
(0.996356 0.00343693 0)
(0.994787 0.00124742 0)
(0.999301 -0.00456945 0)
(0.998339 0.00358339 0)
(0.997779 -0.00365764 0)
(0.99866 0.00265895 0)
(0.998185 -0.00391802 0)
(0.998011 0.00198676 0)
(0.997705 -0.00271646 0)
(0.998097 0.00243301 0)
(0.998864 -0.00188238 0)
(0.998779 0.00163423 0)
(0.999154 -0.00220768 0)
(0.998357 0.000469841 0)
(0.998897 -0.0024141 0)
(0.997502 0.000208182 0)
(0.998617 -0.00171933 0)
(0.996728 0.00027054 0)
(0.998704 -0.000884037 0)
(0.996659 0.000174572 0)
(0.999012 -0.000515857 0)
(0.996434 -0.000280623 0)
(0.999058 -0.000560554 0)
(0.996093 -0.000731148 0)
(0.99879 -0.00057125 0)
(0.995478 -0.000849643 0)
(0.997942 -0.00030643 0)
(0.994441 -0.000464714 0)
(0.996669 0.000635816 0)
(0.993337 0.00110566 0)
(0.995582 0.00343881 0)
(0.99401 0.00569698 0)
(0.999652 -0.00447741 0)
(0.998012 0.00349254 0)
(0.997941 -0.00357291 0)
(0.998343 0.00257562 0)
(0.998239 -0.00380898 0)
(0.997742 0.00190184 0)
(0.997665 -0.00262512 0)
(0.997823 0.00231266 0)
(0.998736 -0.00179438 0)
(0.998496 0.00152321 0)
(0.99895 -0.00209566 0)
(0.998031 0.00037344 0)
(0.998664 -0.00228043 0)
(0.997151 0.000114346 0)
(0.998405 -0.00160046 0)
(0.996406 0.000176139 0)
(0.998576 -0.000804318 0)
(0.996369 9.91752e-05 0)
(0.998959 -0.000481317 0)
(0.996118 -0.000292137 0)
(0.999015 -0.000574807 0)
(0.995683 -0.000647858 0)
(0.998688 -0.000644016 0)
(0.994928 -0.000647525 0)
(0.997745 -0.00041102 0)
(0.993752 -9.52125e-05 0)
(0.996425 0.000320277 0)
(0.992634 0.00186177 0)
(0.99557 0.00321024 0)
(0.99337 0.00991458 0)
(0.99982 -0.00437853 0)
(0.997866 0.00339187 0)
(0.998017 -0.00347676 0)
(0.99819 0.00248284 0)
(0.998262 -0.00368811 0)
(0.997638 0.00180605 0)
(0.997662 -0.00252114 0)
(0.997718 0.0021798 0)
(0.998674 -0.00169239 0)
(0.998359 0.00139803 0)
(0.998836 -0.00196563 0)
(0.997858 0.000261522 0)
(0.998557 -0.00212595 0)
(0.996974 -6.87006e-07 0)
(0.998347 -0.00145795 0)
(0.99625 5.29274e-05 0)
(0.9986 -0.000692568 0)
(0.99621 -1.08643e-05 0)
(0.999045 -0.000398809 0)
(0.995909 -0.000362418 0)
(0.999125 -0.000502477 0)
(0.995383 -0.000675958 0)
(0.998785 -0.000549836 0)
(0.994518 -0.000645199 0)
(0.997819 -0.00026583 0)
(0.993237 -1.55832e-05 0)
(0.99654 0.000812737 0)
(0.992166 0.00180703 0)
(0.996184 0.00346115 0)
(0.993205 0.00600607 0)
(0.999899 -0.00427279 0)
(0.997812 0.00328018 0)
(0.998053 -0.0033687 0)
(0.99812 0.00238034 0)
(0.998274 -0.00355574 0)
(0.997611 0.00169996 0)
(0.997681 -0.00240745 0)
(0.997691 0.00203823 0)
(0.998651 -0.00158217 0)
(0.998292 0.00126763 0)
(0.998777 -0.00183289 0)
(0.997765 0.000152995 0)
(0.998521 -0.00197362 0)
(0.996891 -0.00010665 0)
(0.998361 -0.00132636 0)
(0.996183 -5.63128e-05 0)
(0.998678 -0.000593525 0)
(0.996128 -9.77256e-05 0)
(0.999165 -0.000326104 0)
(0.995775 -0.00041302 0)
(0.999263 -0.000440604 0)
(0.995186 -0.000686041 0)
(0.998929 -0.000459805 0)
(0.99426 -0.000636075 0)
(0.997975 -8.11222e-05 0)
(0.992986 5.53255e-06 0)
(0.996732 0.00140044 0)
(0.991935 0.00172016 0)
(0.996174 0.00399891 0)
(0.993219 0.00242245 0)
(0.999937 -0.00415973 0)
(0.997797 0.00315599 0)
(0.998075 -0.0032474 0)
(0.998085 0.00226604 0)
(0.998288 -0.00340982 0)
(0.997611 0.00158095 0)
(0.997718 -0.00228089 0)
(0.997689 0.00188295 0)
(0.998656 -0.00145796 0)
(0.998245 0.00112548 0)
(0.998761 -0.00168834 0)
(0.997694 3.0566e-05 0)
(0.998541 -0.00181093 0)
(0.996827 -0.000223575 0)
(0.998434 -0.00119649 0)
(0.996118 -0.000163117 0)
(0.998809 -0.000522227 0)
(0.996028 -0.000161771 0)
(0.999336 -0.000311616 0)
(0.995615 -0.000396183 0)
(0.99947 -0.000470943 0)
(0.994968 -0.000567824 0)
(0.99917 -0.000529002 0)
(0.994003 -0.00041472 0)
(0.998262 -0.000140967 0)
(0.992745 0.000368254 0)
(0.997118 0.00117635 0)
(0.991772 0.00250168 0)
(0.996631 0.00432629 0)
(0.993581 0.00678443 0)
(0.999954 -0.00403992 0)
(0.997805 0.00301987 0)
(0.998087 -0.00311352 0)
(0.998072 0.00214183 0)
(0.998298 -0.00325331 0)
(0.997631 0.0014533 0)
(0.997752 -0.00214712 0)
(0.997704 0.0017236 0)
(0.998662 -0.00133398 0)
(0.998222 0.000989246 0)
(0.99875 -0.00154927 0)
(0.997656 -7.99417e-05 0)
(0.998566 -0.00167164 0)
(0.996799 -0.000309662 0)
(0.998502 -0.00111295 0)
(0.996082 -0.000220412 0)
(0.998921 -0.000522346 0)
(0.995953 -0.000152382 0)
(0.999481 -0.000384453 0)
(0.995488 -0.000286408 0)
(0.999648 -0.00059654 0)
(0.994802 -0.000356654 0)
(0.999385 -0.000689409 0)
(0.993819 -7.8568e-05 0)
(0.998532 -0.000333323 0)
(0.992585 0.000951529 0)
(0.997508 0.000837255 0)
(0.991781 0.00336763 0)
(0.997349 0.00452301 0)
(0.99349 0.0113259 0)
(0.999958 -0.00391175 0)
(0.997829 0.00286839 0)
(0.998091 -0.00296349 0)
(0.998076 0.00200354 0)
(0.998301 -0.00308109 0)
(0.997668 0.00131129 0)
(0.997777 -0.00199996 0)
(0.997738 0.00155225 0)
(0.998659 -0.00119572 0)
(0.998221 0.000834672 0)
(0.998735 -0.00139281 0)
(0.997645 -0.000201598 0)
(0.998587 -0.00151347 0)
(0.996797 -0.000412914 0)
(0.998561 -0.00100013 0)
(0.996067 -0.000303154 0)
(0.999016 -0.000456256 0)
(0.995896 -0.00020936 0)
(0.999604 -0.000333411 0)
(0.99538 -0.000335449 0)
(0.999806 -0.000488902 0)
(0.994661 -0.000436704 0)
(0.999591 -0.000468987 0)
(0.993667 -0.000193402 0)
(0.998816 7.53205e-05 0)
(0.992456 0.000775426 0)
(0.99792 0.0016301 0)
(0.991862 0.00293974 0)
(0.998394 0.00451553 0)
(0.993794 0.00652555 0)
(0.999962 -0.00377544 0)
(0.997858 0.002702 0)
(0.998097 -0.00279883 0)
(0.998087 0.00185125 0)
(0.998306 -0.00289523 0)
(0.997713 0.00115444 0)
(0.997804 -0.00184024 0)
(0.997781 0.00136508 0)
(0.998655 -0.00104694 0)
(0.998235 0.000682475 0)
(0.998716 -0.0012614 0)
(0.997659 -0.00030503 0)
(0.998597 -0.00139217 0)
(0.996831 -0.000488202 0)
(0.998591 -0.000939513 0)
(0.996099 -0.000350843 0)
(0.999059 -0.000441589 0)
(0.995902 -0.000239028 0)
(0.999651 -0.000321084 0)
(0.995364 -0.000364654 0)
(0.999867 -0.00040332 0)
(0.994647 -0.000494137 0)
(0.999685 -0.000268397 0)
(0.993689 -0.000281925 0)
(0.99897 0.000477515 0)
(0.992579 0.000646192 0)
(0.998175 0.00238021 0)
(0.991997 0.00272 0)
(0.998309 0.00460017 0)
(0.994134 0.00231932 0)
(0.999975 -0.00363822 0)
(0.997878 0.00253244 0)
(0.998116 -0.00263156 0)
(0.998083 0.00170703 0)
(0.99833 -0.00271646 0)
(0.997739 0.0010175 0)
(0.997853 -0.00170285 0)
(0.9978 0.00121626 0)
(0.99868 -0.000940021 0)
(0.998219 0.00057494 0)
(0.998732 -0.00114105 0)
(0.99764 -0.000366695 0)
(0.998649 -0.00129356 0)
(0.996825 -0.000509465 0)
(0.998666 -0.000905405 0)
(0.996087 -0.000332078 0)
(0.999147 -0.000467959 0)
(0.995861 -0.000184884 0)
(0.999744 -0.000396064 0)
(0.9953 -0.000240911 0)
(0.99998 -0.000520123 0)
(0.994584 -0.000280912 0)
(0.999844 -0.000381833 0)
(0.993663 3.71717e-05 0)
(0.999214 0.000323394 0)
(0.992647 0.00117274 0)
(0.998549 0.00212857 0)
(0.992145 0.00369109 0)
(0.998669 0.0053967 0)
(0.994926 0.00727563 0)
(0.999982 -0.00347332 0)
(0.997905 0.00231619 0)
(0.99813 -0.00241612 0)
(0.998086 0.00150032 0)
(0.998346 -0.00247137 0)
(0.997772 0.000798462 0)
(0.997891 -0.00148327 0)
(0.997827 0.000967236 0)
(0.99869 -0.000733403 0)
(0.998218 0.000346127 0)
(0.998732 -0.000948009 0)
(0.997639 -0.00053028 0)
(0.99868 -0.00111331 0)
(0.996842 -0.000637181 0)
(0.998715 -0.000800407 0)
(0.996101 -0.000413812 0)
(0.999204 -0.000460334 0)
(0.99585 -0.000201851 0)
(0.999801 -0.000476546 0)
(0.995269 -0.000131556 0)
(1.00005 -0.000686433 0)
(0.994566 -2.87244e-05 0)
(0.999942 -0.000612383 0)
(0.993679 0.000518116 0)
(0.999383 -1.21296e-06 0)
(0.992758 0.00186955 0)
(0.998868 0.0016107 0)
(0.99249 0.00474185 0)
(0.999271 0.00596868 0)
(0.994712 0.0125526 0)
(0.999973 -0.00334046 0)
(0.997957 0.00214893 0)
(0.998127 -0.00225225 0)
(0.998115 0.0013753 0)
(0.998343 -0.00231856 0)
(0.997832 0.000705718 0)
(0.99791 -0.00140484 0)
(0.997882 0.000900686 0)
(0.998683 -0.000723078 0)
(0.998238 0.000374507 0)
(0.998717 -0.00102904 0)
(0.99766 -0.000387598 0)
(0.998699 -0.00125924 0)
(0.996874 -0.000424165 0)
(0.998756 -0.00102755 0)
(0.996125 -0.000184371 0)
(0.999254 -0.000699259 0)
(0.995845 -3.62598e-05 0)
(0.999854 -0.000611887 0)
(0.995239 -7.07884e-05 0)
(1.00011 -0.000656786 0)
(0.994537 -6.31116e-05 0)
(1.00005 -0.000442251 0)
(0.993676 0.000394817 0)
(0.999564 0.000525002 0)
(0.992822 0.00170937 0)
(0.999213 0.0025062 0)
(0.992892 0.00417578 0)
(1.00033 0.00538088 0)
(0.995066 0.00661361 0)
(0.999963 -0.00314366 0)
(0.998018 0.00187919 0)
(0.998127 -0.00198353 0)
(0.99815 0.00111839 0)
(0.998344 -0.00201839 0)
(0.997901 0.000431326 0)
(0.997931 -0.00112387 0)
(0.997948 0.000583079 0)
(0.998676 -0.00043468 0)
(0.998275 8.53914e-05 0)
(0.998695 -0.000663867 0)
(0.997704 -0.000702767 0)
(0.9987 -0.000845349 0)
(0.996946 -0.000816094 0)
(0.998762 -0.000520966 0)
(0.996213 -0.000681559 0)
(0.999245 -7.43461e-05 0)
(0.995934 -0.000673306 0)
(0.999829 0.000164952 0)
(0.995337 -0.000841113 0)
(1.00009 0.000298154 0)
(0.994677 -0.000951933 0)
(1.00007 0.000682255 0)
(0.993926 -0.000580934 0)
(0.999686 0.00180765 0)
(0.993219 0.000632453 0)
(0.999429 0.00401088 0)
(0.993166 0.00293538 0)
(0.999862 0.00609384 0)
(0.995541 0.00196622 0)
(0.999973 -0.00300312 0)
(0.998059 0.00169241 0)
(0.998154 -0.00180661 0)
(0.998159 0.000986637 0)
(0.998374 -0.00186136 0)
(0.997938 0.000342898 0)
(0.99799 -0.00106799 0)
(0.997977 0.000540973 0)
(0.998716 -0.000485191 0)
(0.998268 0.000142804 0)
(0.998723 -0.00087588 0)
(0.997696 -0.000402544 0)
(0.99876 -0.00120585 0)
(0.99696 -0.000373165 0)
(0.998837 -0.00107569 0)
(0.99623 -8.50889e-05 0)
(0.999318 -0.000873084 0)
(0.995939 0.000160641 0)
(0.999898 -0.000898006 0)
(0.995337 0.000328506 0)
(1.00017 -0.00103898 0)
(0.994699 0.000619778 0)
(1.0002 -0.000848242 0)
(0.994 0.00136853 0)
(0.999894 -8.88762e-05 0)
(0.993407 0.00283328 0)
(0.999792 0.00154441 0)
(0.993523 0.00567598 0)
(1.00032 0.00583536 0)
(0.995762 0.0132351 0)
(0.999969 -0.00279938 0)
(0.998126 0.00141788 0)
(0.998164 -0.00153753 0)
(0.998194 0.000751072 0)
(0.998384 -0.00159085 0)
(0.998003 0.000121887 0)
(0.998025 -0.000860652 0)
(0.998037 0.000340342 0)
(0.998724 -0.000336912 0)
(0.998286 -1.39792e-05 0)
(0.998733 -0.000749187 0)
(0.997715 -0.000497973 0)
(0.998797 -0.00104985 0)
(0.996992 -0.000529103 0)
(0.998893 -0.000834656 0)
(0.996255 -0.000372602 0)
(0.99938 -0.000560255 0)
(0.995934 -0.000279716 0)
(0.999962 -0.000458217 0)
(0.995301 -0.000293568 0)
(1.00025 -0.000411748 0)
(0.994669 -0.000182251 0)
(1.00031 1.5718e-06 0)
(0.994 0.000486234 0)
(1.00006 0.00107576 0)
(0.993461 0.00198078 0)
(1.00014 0.00300358 0)
(0.994061 0.00421572 0)
(1.00167 0.00548618 0)
(0.995994 0.00675544 0)
(0.999973 -0.0026502 0)
(0.998196 0.00120736 0)
(0.998186 -0.00134371 0)
(0.998231 0.000604904 0)
(0.9984 -0.00139945 0)
(0.998075 1.19536e-05 0)
(0.998066 -0.00074238 0)
(0.998108 0.000237696 0)
(0.998738 -0.000236785 0)
(0.998326 -6.52811e-05 0)
(0.998724 -0.000590304 0)
(0.997767 -0.000593506 0)
(0.998801 -0.000841254 0)
(0.997087 -0.00071174 0)
(0.998896 -0.000505661 0)
(0.99637 -0.000674674 0)
(0.999367 -3.86556e-05 0)
(0.996063 -0.000759619 0)
(0.999933 0.000316503 0)
(0.995461 -0.000975195 0)
(1.00023 0.000675546 0)
(0.994893 -0.00113705 0)
(1.00037 0.00137966 0)
(0.994334 -0.000733015 0)
(1.00025 0.00268556 0)
(0.993949 0.000623923 0)
(1.00035 0.0049783 0)
(0.994209 0.00271576 0)
(1.00096 0.00609435 0)
(0.996507 0.000378067 0)
(1.00003 -0.00240738 0)
(0.998213 0.000887462 0)
(0.998269 -0.00104878 0)
(0.998206 0.000324979 0)
(0.998482 -0.00110509 0)
(0.998074 -0.000217896 0)
(0.998179 -0.00056217 0)
(0.998106 4.14424e-05 0)
(0.998828 -0.000189864 0)
(0.998284 -0.000135437 0)
(0.998805 -0.000677073 0)
(0.997724 -0.000416912 0)
(0.998903 -0.00114084 0)
(0.997075 -0.000293153 0)
(0.999009 -0.00113959 0)
(0.996376 4.70993e-07 0)
(0.999475 -0.00112245 0)
(0.996069 0.000383421 0)
(1.00004 -0.00119809 0)
(0.995476 0.000652736 0)
(1.00034 -0.00122658 0)
(0.994956 0.000967033 0)
(1.00052 -0.000873986 0)
(0.994472 0.00159976 0)
(1.00051 0.000114522 0)
(0.994241 0.00307304 0)
(1.0008 0.00211823 0)
(0.99464 0.00634463 0)
(1.00137 0.00707566 0)
(0.996722 0.0131001 0)
(1.00005 -0.00230781 0)
(0.998276 0.00075639 0)
(0.998315 -0.000933719 0)
(0.998222 0.000295136 0)
(0.998523 -0.00106092 0)
(0.998114 -0.000222462 0)
(0.998251 -0.000616971 0)
(0.998139 0.000125751 0)
(0.998888 -0.0002883 0)
(0.998277 -5.19826e-05 0)
(0.998861 -0.000721858 0)
(0.997705 -0.000354689 0)
(0.998984 -0.0011492 0)
(0.997065 -0.000260239 0)
(0.999106 -0.00113524 0)
(0.996337 2.37884e-05 0)
(0.999596 -0.00113271 0)
(0.995998 0.000426725 0)
(1.00015 -0.00124555 0)
(0.99538 0.000788869 0)
(1.00045 -0.00132797 0)
(0.99486 0.00121873 0)
(1.00064 -0.00100612 0)
(0.994425 0.00201801 0)
(1.0007 -7.70056e-05 0)
(0.994293 0.00330087 0)
(1.00127 0.00154399 0)
(0.995432 0.00604544 0)
(1.00283 0.00648293 0)
(0.996116 0.0130165 0)
(1.00001 -0.00203393 0)
(0.998405 0.000381874 0)
(0.998317 -0.000564899 0)
(0.998301 -2.82264e-05 0)
(0.998513 -0.000603448 0)
(0.998219 -0.000533272 0)
(0.998279 -0.000253535 0)
(0.99825 -0.000237101 0)
(0.998882 8.8425e-05 0)
(0.998356 -0.000525456 0)
(0.998842 -0.000101997 0)
(0.997781 -0.00106767 0)
(0.998983 -0.000229538 0)
(0.997171 -0.00126167 0)
(0.999118 9.16236e-05 0)
(0.996457 -0.00130391 0)
(0.999609 0.00051045 0)
(0.99611 -0.00137722 0)
(1.00017 0.000807466 0)
(0.995487 -0.0013775 0)
(1.00048 0.00106199 0)
(0.995008 -0.00120667 0)
(1.00073 0.00162313 0)
(0.994622 -0.000517141 0)
(1.00082 0.00265208 0)
(0.994539 0.000543349 0)
(1.00151 0.00371943 0)
(0.995887 0.00099602 0)
(1.00328 0.00313217 0)
(0.996604 -0.000421308 0)
(0.99999 -0.00188388 0)
(0.998531 0.000188542 0)
(0.998341 -0.000537811 0)
(0.998378 3.34382e-06 0)
(0.998533 -0.000721419 0)
(0.998303 -0.000356815 0)
(0.998327 -0.000490467 0)
(0.998334 4.64083e-05 0)
(0.998908 -0.000299753 0)
(0.998425 -0.000136693 0)
(0.998844 -0.000491544 0)
(0.997861 -0.000667586 0)
(0.998994 -0.000608625 0)
(0.997288 -0.000852837 0)
(0.999127 -0.000354189 0)
(0.996595 -0.000903687 0)
(0.999614 -1.05907e-06 0)
(0.996267 -0.00096489 0)
(1.00019 0.000321436 0)
(0.995672 -0.000969967 0)
(1.00053 0.000656695 0)
(0.995245 -0.000775369 0)
(1.00086 0.0012927 0)
(0.994948 2.48478e-05 0)
(1.00104 0.00232522 0)
(0.994864 0.00115485 0)
(1.00148 0.00304311 0)
(0.995518 0.000895717 0)
(1.00255 0.00158636 0)
(0.998363 -0.00019152 0)
(1 -0.00174731 0)
(0.998614 1.26686e-05 0)
(0.998415 -0.000352059 0)
(0.998402 -0.000171347 0)
(0.998599 -0.000383928 0)
(0.998352 -0.00064285 0)
(0.998431 -0.000199565 0)
(0.998378 -0.000305385 0)
(0.998977 1.58464e-06 0)
(0.998448 -0.000452509 0)
(0.998895 -0.00019858 0)
(0.997888 -0.000845821 0)
(0.999068 -0.000438545 0)
(0.997333 -0.00087931 0)
(0.999213 -0.000341151 0)
(0.996652 -0.000755745 0)
(0.999701 -0.000165875 0)
(0.996327 -0.000654573 0)
(1.00028 -2.1173e-05 0)
(0.995743 -0.000456987 0)
(1.00065 0.000167573 0)
(0.995371 -0.000134932 0)
(1.00106 0.000767189 0)
(0.995127 0.000638545 0)
(1.00128 0.00163979 0)
(0.995008 0.00175411 0)
(1.00163 0.00285845 0)
(0.995703 0.003326 0)
(1.0033 0.00469943 0)
(1.00064 0.00560011 0)
(0.999999 -0.00141536 0)
(0.998743 -0.000352798 0)
(0.998458 -0.000120956 0)
(0.99849 -0.000290889 0)
(0.998629 -0.000288687 0)
(0.998431 -0.000588812 0)
(0.998489 -0.000256409 0)
(0.998456 -0.000164201 0)
(0.999022 -0.000252207 0)
(0.998508 -7.25441e-05 0)
(0.998937 -0.000699705 0)
(0.997944 -0.000198263 0)
(0.999135 -0.00116017 0)
(0.997408 -5.48554e-05 0)
(0.999284 -0.00122115 0)
(0.996719 0.000192124 0)
(0.999759 -0.00122286 0)
(0.996384 0.000477701 0)
(1.00035 -0.00115235 0)
(0.9958 0.000735498 0)
(1.00072 -0.000915491 0)
(0.995472 0.0011402 0)
(1.00117 -0.000265457 0)
(0.995262 0.00180604 0)
(1.00146 0.00057701 0)
(0.995303 0.0028881 0)
(1.00207 0.0022115 0)
(0.996195 0.00590153 0)
(1.00341 0.00724175 0)
(0.999643 0.0119785 0)
(0.999977 -0.00155266 0)
(0.998863 -0.000209774 0)
(0.998526 -0.000410649 0)
(0.998542 3.45916e-05 0)
(0.998683 -0.000533737 0)
(0.998506 -0.000292665 0)
(0.998579 -0.000461834 0)
(0.998515 -4.42647e-05 0)
(0.999099 -0.00038242 0)
(0.998529 -0.000118485 0)
(0.999009 -0.000627423 0)
(0.997958 -0.000379801 0)
(0.999228 -0.000883662 0)
(0.997431 -0.000435561 0)
(0.999389 -0.000795942 0)
(0.996728 -0.000385844 0)
(0.999882 -0.000704562 0)
(0.996389 -0.000248423 0)
(1.00045 -0.000472467 0)
(0.995818 -3.03363e-05 0)
(1.00085 -9.99475e-05 0)
(0.995529 0.000422247 0)
(1.00132 0.000629758 0)
(0.995332 0.00126668 0)
(1.00167 0.00165765 0)
(0.995454 0.00230097 0)
(1.00265 0.00279486 0)
(0.997388 0.00321516 0)
(1.00537 0.00363942 0)
(0.999799 0.0046296 0)
(0.99995 -0.000904944 0)
(0.999028 -0.000905358 0)
(0.998568 0.000176781 0)
(0.99867 -0.000568415 0)
(0.998688 0.000139219 0)
(0.998626 -0.000920065 0)
(0.998605 0.000217609 0)
(0.998649 -0.00085206 0)
(0.999106 0.000490027 0)
(0.998662 -0.00108291 0)
(0.999001 0.00047909 0)
(0.998092 -0.0014971 0)
(0.999227 0.000387606 0)
(0.997601 -0.00166899 0)
(0.999389 0.000607172 0)
(0.996905 -0.0017248 0)
(0.999878 0.000823267 0)
(0.996591 -0.00162791 0)
(1.00049 0.00104985 0)
(0.996039 -0.0013886 0)
(1.00092 0.00137513 0)
(0.995806 -0.000876391 0)
(1.00148 0.00206913 0)
(0.995698 0.000171699 0)
(1.00186 0.00313879 0)
(0.995802 0.00120847 0)
(1.00245 0.00377994 0)
(0.996566 0.000713792 0)
(1.00394 0.00182352 0)
(1.00091 -0.000974505 0)
(0.999981 -0.0014383 0)
(0.999095 -0.000208507 0)
(0.998709 -0.000650919 0)
(0.998672 0.000462043 0)
(0.998795 -0.000971792 0)
(0.998651 0.000363716 0)
(0.998735 -0.00100702 0)
(0.998693 0.000514595 0)
(0.999213 -0.000876957 0)
(0.998681 0.000395703 0)
(0.999084 -0.00100836 0)
(0.998104 0.000123832 0)
(0.999326 -0.00121177 0)
(0.997644 5.40033e-05 0)
(0.999497 -0.00111691 0)
(0.996965 7.67191e-05 0)
(1.00002 -0.000934702 0)
(0.996651 0.000246811 0)
(1.00062 -0.000729834 0)
(0.996126 0.000468813 0)
(1.0011 -0.000314633 0)
(0.995956 0.000935103 0)
(1.00174 0.000486215 0)
(0.9959 0.00190817 0)
(1.00211 0.00163453 0)
(0.995921 0.0030286 0)
(1.00261 0.00266254 0)
(0.996932 0.00396324 0)
(1.00507 0.00435833 0)
(1.00306 0.00737665 0)
(0.999991 -0.000538314 0)
(0.999205 -0.00131536 0)
(0.998818 0.000256242 0)
(0.99874 -0.000613711 0)
(0.998863 0.000321159 0)
(0.998724 -0.000818742 0)
(0.998811 0.000317663 0)
(0.998771 -0.000844001 0)
(0.999279 0.00047762 0)
(0.998753 -0.00097388 0)
(0.999148 0.000371122 0)
(0.998171 -0.00117782 0)
(0.999404 0.000180243 0)
(0.997731 -0.00124101 0)
(0.999582 0.000223139 0)
(0.997054 -0.00116993 0)
(1.0001 0.000314663 0)
(0.996746 -0.00102054 0)
(1.00072 0.000535682 0)
(0.996246 -0.000704009 0)
(1.00123 0.000926451 0)
(0.996128 -0.000179674 0)
(1.00194 0.00163644 0)
(0.996152 0.000794276 0)
(1.00239 0.00281888 0)
(0.99625 0.00238378 0)
(1.00297 0.0048121 0)
(0.997317 0.00475624 0)
(1.00549 0.00649069 0)
(1.00354 0.00466514 0)
(0.999986 -0.00107253 0)
(0.999327 -0.00030942 0)
(0.998949 -0.000783978 0)
(0.998831 0.000563887 0)
(0.998938 -0.00112889 0)
(0.998801 0.000736765 0)
(0.998897 -0.00133183 0)
(0.998872 0.000903241 0)
(0.999364 -0.00142487 0)
(0.998831 0.000923383 0)
(0.999221 -0.00165568 0)
(0.99824 0.00078525 0)
(0.999481 -0.00182162 0)
(0.997818 0.00064955 0)
(0.99967 -0.00169315 0)
(0.997146 0.00066737 0)
(1.0002 -0.0014859 0)
(0.996861 0.000749115 0)
(1.00084 -0.00107608 0)
(0.99638 0.000978778 0)
(1.00138 -0.000546362 0)
(0.996311 0.00143562 0)
(1.00217 0.000258312 0)
(0.99643 0.00235599 0)
(1.00277 0.00140235 0)
(0.9968 0.0037732 0)
(1.00362 0.00382365 0)
(0.997748 0.00784143 0)
(1.0051 0.00950939 0)
(1.00198 0.0134141 0)
(0.999918 -0.000594124 0)
(0.999435 -0.00105545 0)
(0.998982 -9.64123e-05 0)
(0.998892 -0.000305801 0)
(0.998973 -7.1953e-05 0)
(0.99888 -0.000346421 0)
(0.998933 -0.000107028 0)
(0.998927 -0.000407224 0)
(0.999395 -9.88662e-05 0)
(0.998878 -0.000446908 0)
(0.999257 -0.000278186 0)
(0.998295 -0.000552323 0)
(0.999525 -0.000429897 0)
(0.997893 -0.000654936 0)
(0.999737 -0.000350828 0)
(0.997215 -0.000552598 0)
(1.00027 -0.0002118 0)
(0.996943 -0.000394063 0)
(1.00093 0.000104818 0)
(0.996474 -7.05604e-05 0)
(1.00151 0.000563375 0)
(0.996448 0.000479861 0)
(1.00239 0.00141726 0)
(0.996602 0.00160106 0)
(1.00306 0.00266615 0)
(0.997232 0.00274178 0)
(1.00473 0.00349622 0)
(0.99983 0.00336458 0)
(1.00792 0.00388978 0)
(1.00143 0.00316749 0)
(0.999831 -0.000481637 0)
(0.999703 -0.000891309 0)
(0.999047 -0.000314114 0)
(0.999148 -0.00018403 0)
(0.998959 -0.000181507 0)
(0.999094 -0.000234064 0)
(0.998918 -0.000187394 0)
(0.99916 -0.00027846 0)
(0.999406 -0.000227183 0)
(0.99909 -0.000321037 0)
(0.999279 -0.000244552 0)
(0.998502 -0.000514933 0)
(0.999553 -0.00034783 0)
(0.998111 -0.000641941 0)
(0.999783 -0.000286635 0)
(0.997433 -0.000598298 0)
(1.00033 -0.000102123 0)
(0.997178 -0.000398152 0)
(1.00101 0.000224655 0)
(0.996735 -1.02369e-05 0)
(1.00163 0.000643989 0)
(0.996803 0.000518711 0)
(1.00262 0.00126491 0)
(0.997097 0.0012371 0)
(1.00327 0.00209712 0)
(0.997335 0.00225227 0)
(1.0039 0.00350651 0)
(0.998004 0.00392943 0)
(1.00489 0.00519878 0)
(1.00155 0.00556765 0)
(0.999902 -0.000852852 0)
(0.999606 -0.000307674 0)
(0.999186 -0.000790327 0)
(0.999064 0.000256333 0)
(0.999098 -0.000684514 0)
(0.999034 0.000262683 0)
(0.999056 -0.000725041 0)
(0.999071 0.000274589 0)
(0.999525 -0.000917021 0)
(0.999034 0.000222758 0)
(0.999373 -0.000840873 0)
(0.998445 2.64088e-05 0)
(0.999658 -0.000918311 0)
(0.998073 -3.2069e-05 0)
(0.999901 -0.000864157 0)