/*--------------------------------*- C++ -*----------------------------------*\
| =========                 |                                                 |
| \\      /  F ield         | OpenFOAM: The Open Source CFD Toolbox           |
|  \\    /   O peration     | Version:  v2006                                 |
|   \\  /    A nd           | Website:  www.openfoam.com                      |
|    \\/     M anipulation  |                                                 |
\*---------------------------------------------------------------------------*/
FoamFile
{
    version     2.0;
    format      ascii;
    class       volScalarField;
    location    "0.1";
    object      p;
}
// * * * * * * * * * * * * * * * * * * * * * * * * * * * * * * * * * * * * * //

dimensions      [0 2 -2 0 0 0 0];


internalField   nonuniform List<scalar> 
26400
(
-1.65053e-11
0.00437163
0.00323655
0.0038972
0.00446373
0.00379368
0.00342446
0.00398966
0.00428155
0.00592125
0.00585959
0.00497418
0.00442724
0.00505088
0.00566799
0.00625722
0.00636979
0.00648378
0.00621943
0.00661798
0.00715196
0.0076792
0.00765513
0.0081517
0.00864663
0.0093838
0.00972197
0.0104967
0.0120886
0.0131749
4.40718e-06
0.00436825
0.00323793
0.0038948
0.00446149
0.0038053
0.00342619
0.00398676
0.00428203
0.0059231
0.0058616
0.00497147
0.00442663
0.00505064
0.00567039
0.00625572
0.00637169
0.00648104
0.00622107
0.00661646
0.00715625
0.00767334
0.00765962
0.00813859
0.0086536
0.00937097
0.00973985
0.0103934
0.0121094
0.0125957
1.04548e-05
0.00436269
0.00324076
0.00388855
0.00445936
0.00381114
0.00342787
0.00398104
0.00428305
0.00592701
0.0058649
0.0049655
0.00442595
0.00505185
0.00567332
0.00625244
0.00637595
0.00647668
0.00622339
0.00661563
0.00715943
0.00766531
0.00766772
0.00813053
0.00866124
0.00935861
0.00974187
0.0103236
0.0120211
0.0118832
1.87973e-05
0.00436121
0.00324471
0.00388038
0.00445782
0.00381933
0.0034307
0.00397402
0.00428336
0.00593327
0.00587018
0.00495695
0.00442425
0.00505476
0.00567601
0.00624824
0.00638247
0.00647118
0.00622524
0.00661526
0.0071619
0.00765563
0.00767787
0.00811772
0.00866805
0.00934398
0.00973489
0.0102619
0.0118163
0.0113749
3.12706e-05
0.00436512
0.00324948
0.00387037
0.00445646
0.00382989
0.00343546
0.00396571
0.0042824
0.00594165
0.00587763
0.00494612
0.00442134
0.0050585
0.0056785
0.00624357
0.00639081
0.00646467
0.00622674
0.00661452
0.00716365
0.007645
0.00768892
0.00810711
0.00867179
0.00933172
0.00971791
0.010195
0.0115625
0.0108798
4.88458e-05
0.00437325
0.00325469
0.00385863
0.00445511
0.00384212
0.00344206
0.00395613
0.00428031
0.00595142
0.00588683
0.00493369
0.00441749
0.00506198
0.00568097
0.00623888
0.00640051
0.00645744
0.00622799
0.00661261
0.00716514
0.00763405
0.00769971
0.00809722
0.00867226
0.00932219
0.00968941
0.0101217
0.0112749
0.0103823
7.14761e-05
0.00438424
0.00325993
0.00384546
0.00445394
0.00385511
0.00345005
0.00394556
0.00427748
0.00596195
0.00589742
0.00492029
0.00441284
0.00506445
0.00568377
0.00623449
0.00641123
0.00644963
0.00622895
0.00660934
0.0071669
0.00762277
0.0077096
0.00808849
0.00866927
0.00931304
0.00965362
0.0100357
0.0109523
0.00989776
9.84884e-05
0.004397
0.00326499
0.00383127
0.00445313
0.00386826
0.00345893
0.00393416
0.00427451
0.00597304
0.00590916
0.00490608
0.00440743
0.0050657
0.00568729
0.00623051
0.00642266
0.0064413
0.00622955
0.00660502
0.00716869
0.00761138
0.00771821
0.00808078
0.00866189
0.00930506
0.00960645
0.00995162
0.010561
0.00944054
0.000128981
0.00441064
0.00326996
0.0038164
0.00445278
0.00388122
0.00346828
0.00392194
0.00427196
0.00598468
0.00592186
0.00489094
0.00440127
0.00506572
0.00569178
0.00622696
0.00643451
0.00643248
0.00622966
0.0065999
0.00717014
0.00760046
0.00772464
0.0080744
0.00864977
0.00929739
0.00954675
0.00987334
0.010113
0.00895431
0.000162128
0.00442458
0.00327514
0.00380101
0.00445298
0.00389385
0.00347771
0.00390889
0.00427031
0.00599691
0.00593542
0.00487466
0.00439434
0.00506454
0.00569743
0.00622385
0.00644657
0.00642314
0.00622909
0.00659414
0.00717114
0.00758999
0.00772888
0.0080676
0.00863739
0.00927825
0.00949605
0.00975325
0.0098009
0.00840948
0.000197353
0.00443848
0.00328089
0.00378516
0.00445379
0.00390608
0.00348695
0.00389495
0.00426988
0.00600977
0.00594977
0.00485704
0.00438658
0.00506219
0.0057043
0.00622129
0.00645863
0.0064133
0.00622749
0.00658814
0.0071714
0.00758007
0.00773098
0.00805928
0.00862591
0.00924505
0.00945658
0.00958546
0.00964541
0.00778576
0.00023435
0.00445211
0.00328749
0.00376887
0.0044553
0.00391782
0.00349581
0.00388006
0.00427097
0.00602329
0.00596488
0.00483788
0.00437793
0.00505871
0.00571244
0.0062194
0.00647047
0.00640316
0.0062244
0.00658239
0.00717034
0.0075712
0.00773027
0.00805018
0.00860976
0.00920675
0.00940328
0.00942817
0.00942165
0.00709877
0.000273014
0.00446531
0.00329516
0.0037521
0.0044576
0.00392897
0.00350411
0.00386419
0.0042738
0.00603749
0.00598073
0.00481703
0.0043683
0.00505414
0.00572181
0.00621839
0.00648187
0.00639296
0.00621949
0.00657705
0.0071678
0.00756325
0.0077267
0.00803959
0.00858827
0.00916324
0.0093324
0.00928105
0.00909683
0.00646429
0.00031336
0.00447788
0.00330407
0.00373481
0.0044608
0.00393942
0.00351175
0.00384729
0.00427858
0.00605239
0.00599732
0.00479438
0.00435753
0.00504862
0.00573227
0.00621853
0.00649238
0.00638308
0.00621241
0.00657221
0.00716377
0.00755568
0.0077205
0.00802696
0.00856252
0.00911072
0.00924827
0.00912067
0.00872248
0.0058721
0.000355458
0.00448962
0.00331436
0.00371696
0.00446502
0.00394903
0.0035186
0.00382932
0.0042855
0.00606801
0.0060146
0.00476983
0.00434544
0.00504232
0.00574376
0.00622009
0.0065017
0.00637363
0.00620301
0.00656777
0.00715852
0.00754789
0.00771195
0.00800874
0.0085359
0.00904686
0.00915123
0.0089399
0.00834323
0.0053035
0.000399411
0.0045003
0.00332617
0.00369848
0.00447039
0.00395768
0.00352451
0.00381027
0.00429474
0.00608438
0.00603251
0.00474337
0.00433179
0.00503541
0.00575604
0.00622344
0.00650954
0.00636468
0.00619128
0.00656337
0.00715234
0.00753941
0.00770086
0.0079853
0.00850208
0.00897196
0.00903819
0.0087418
0.00795971
0.00474677
0.000445336
0.00450967
0.00333963
0.00367932
0.00447702
0.00396526
0.00352936
0.00379011
0.00430641
0.00610161
0.00605094
0.00471499
0.00431633
0.00502821
0.00576868
0.00622903
0.00651556
0.00635642
0.00617709
0.00655903
0.00714496
0.00753022
0.00768596
0.00795906
0.00845347
0.0088893
0.00890207
0.00853546
0.00756473
0.00419666
0.000493359
0.00451746
0.00335484
0.00365943
0.00448503
0.00397168
0.00353296
0.0037689
0.00432058
0.00611978
0.00606972
0.00468485
0.00429867
0.0050212
0.00578135
0.00623701
0.00651964
0.00634882
0.00616059
0.00655394
0.0071373
0.00751923
0.00766775
0.00792712
0.00839555
0.00879271
0.00874823
0.00830903
0.00719627
0.0036564
0.000543616
0.0045234
0.00337193
0.00363875
0.00449457
0.00397684
0.00353505
0.00374673
0.00433732
0.00613901
0.00608864
0.00465306
0.00427844
0.00501468
0.00579395
0.00624742
0.00652183
0.00634138
0.00614258
0.00654656
0.00713058
0.00750546
0.00764789
0.00788406
0.00833374
0.0086728
0.00858837
0.00803862
0.00688586
0.00316437
0.000596248
0.00452717
0.00339101
0.00361723
0.00450573
0.00398068
0.00353537
0.00372367
0.00435663
0.0061596
0.00610738
0.0046196
0.00425522
0.00500898
0.00580629
0.00626027
0.00652248
0.00633326
0.00612396
0.00653591
0.00712547
0.00748788
0.00762613
0.00782519
0.00827062
0.00852945
0.00841977
0.00773007
0.00654963
0.00272801
0.000651403
0.00452846
0.00341215
0.00359482
0.00451862
0.0039832
0.00353361
0.00369992
0.00437842
0.00618184
0.00612552
0.00458514
0.00422841
0.00500446
0.00581827
0.00627539
0.00652185
0.00632421
0.00610418
0.00652433
0.00711841
0.00746891
0.00758999
0.00778297
0.00815872
0.00840871
0.00817958
0.007485
0.00597566
0.00238925
0.000709235
0.00452696
0.00343542
0.00357149
0.00453332
0.00398446
0.00352933
0.00367585
0.00440245
0.00620598
0.00614279
0.00455072
0.00419776
0.00500108
0.00583002
0.00629262
0.00651977
0.0063153
0.0060819
0.00651182
0.00710524
0.00745133
0.00753048
0.00775361
0.00800869
0.00828845
0.00790347
0.00726505
0.00541395
0.00198048
0.0007699
0.00452236
0.00346084
0.00354753
0.00454986
0.00398457
0.00352208
0.00365171
0.00442847
0.00623238
0.00615893
0.004516
0.0041633
0.00499831
0.00584231
0.00631086
0.00651805
0.00630224
0.00606362
0.00648839
0.0071097
0.00741981
0.00750779
0.00762696
0.0079442
0.00804099
0.00774015
0.00686803
0.00543187
0.00176432
0.000833555
0.00451434
0.00348841
0.00352291
0.00456824
0.00398378
0.00351128
0.003628
0.00445608
0.00626155
0.0061734
0.00448171
0.00412446
0.00499656
0.00585481
0.00633005
0.00651645
0.00628773
0.00604255
0.00646433
0.00710809
0.00739097
0.00747364
0.00754849
0.00780126
0.00784242
0.00747512
0.00653996
0.00507954
0.00151565
0.000900357
0.00450261
0.00351807
0.00349778
0.00458835
0.00398241
0.00349639
0.00360519
0.00448501
0.00629347
0.00618659
0.00444711
0.00408198
0.00499406
0.00586905
0.00634983
0.00651405
0.00627271
0.00601639
0.00644521
0.00707509
0.00737588
0.00733397
0.00752618
0.00756298
0.00770541
0.00708895
0.00630897
0.00428492
0.00124551
0.000970453
0.00448694
0.0035497
0.00347235
0.00460999
0.00398093
0.0034768
0.00358374
0.00451469
0.00632876
0.00619809
0.004413
0.00403514
0.00499137
0.00588473
0.00636958
0.00651209
0.00625568
0.00599317
0.00641547
0.00706395
0.00732595
0.00734756
0.00735944
0.00747929
0.00734332
0.0068295
0.00587946
0.00454044
0.00139886
0.00104397
0.00446714
0.00358311
0.00344689
0.00463286
0.00397996
0.00345192
0.003564
0.00454489
0.00636724
0.00620871
0.00437816
0.00398528
0.00498629
0.00590393
0.00638819
0.0065112
0.00623084
0.00597386
0.0063792
0.00705565
0.00726769
0.0073185
0.00723481
0.00735397
0.00702016
0.0064411
0.00526733
0.00438501
0.0017689
0.00112104
0.00444305
0.00361804
0.00342177
0.00465649
0.00398029
0.00342134
0.00354617
0.00457525
0.00640864
0.00621935
0.00434205
0.00393265
0.00497896
0.00592515
0.00640818
0.00650797
0.00621172
0.00593257
0.00635965
0.00700493
0.00728896
0.00710587
0.00721784
0.00709724
0.00687809
0.00589703
0.00448865
0.00283642
0.00237288
0.00120173
0.00441464
0.0036541
0.00339745
0.00468029
0.00398289
0.00338472
0.00353029
0.00460525
0.00645327
0.00623013
0.00430525
0.00387646
0.00497036
0.00594611
0.00642947
0.00650398
0.00620521
0.00590277
0.00632008
0.00698515
0.00723477
0.00704909
0.0070959
0.00694267
0.00671025
0.00565349
0.00407394
0.00240784
0.00219483
0.00128612
0.00438195
0.00369086
0.00337447
0.00470361
0.00398861
0.00334195
0.00351579
0.00463553
0.00649961
0.00624344
0.00426466
0.00382009
0.00495637
0.00597504
0.00644801
0.00650304
0.00616276
0.00588837
0.00625343
0.00698126
0.00714782
0.00702953
0.00688705
0.00683133
0.00651677
0.0057656
0.00476926
0.00370042
0.000969614
0.00137421
0.00434514
0.00372777
0.00335345
0.00472567
0.0039985
0.00329289
0.00350239
0.00466591
0.00654803
0.00625844
0.00422323
0.00375895
0.00494337
0.00599579
0.00647229
0.00649721
0.00615459
0.00585569
0.00620358
0.0069482
0.00709531
0.00696443
0.00673712
0.00670849
0.00633932
0.00573794
0.00480702
0.00320366
-0.000995114
0.00146599
0.00430451
0.00376416
0.00333503
0.00474577
0.00401343
0.00323781
0.00348881
0.00469762
0.00659596
0.00627846
0.00417816
0.00369626
0.00492678
0.00602154
0.00649572
0.00649058
0.00610403
0.00581411
0.00617363
0.00687676
0.00707602
0.0068578
0.00664128
0.00657639
0.00616698
0.00536267
0.00426141
0.00302461
0.00016109
0.00156135
0.00426049
0.0037993
0.00331985
0.00476323
0.0040342
0.00317705
0.00347397
0.00473107
0.00664305
0.00630287
0.00413269
0.00362703
0.00491126
0.00604071
0.00652051
0.00648328
0.00609065
0.00574548
0.00616412
0.00677263
0.00708722
0.00670956
0.00658168
0.00642466
0.00603885
0.00495376
0.00317613
0.00105964
7.2774e-05
0.00166014
0.00421364
0.00383241
0.00330855
0.00477738
0.00406137
0.00311136
0.00345638
0.00476728
0.0066879
0.0063322
0.0040879
0.00355186
0.00489386
0.00606573
0.00653645
0.00648833
0.00603119
0.00572593
0.00607322
0.00676348
0.00697323
0.00668442
0.00642695
0.00628597
0.00591313
0.00510581
0.00405963
0.00268011
-0.00063887
0.00176212
0.00416468
0.00386269
0.00330172
0.00478767
0.00409519
0.00304189
0.00343421
0.00480739
0.006729
0.0063666
0.00404519
0.0034701
0.00487495
0.00610588
0.00655024
0.00649089
0.00598849
0.00568825
0.00600047
0.00673611
0.00688472
0.00662347
0.00629253
0.00613989
0.00584147
0.00519856
0.00410447
0.00192214
-0.00305701
0.00186693
0.00411449
0.00388935
0.0032998
0.00479374
0.00413561
0.00297013
0.00340582
0.00485168
0.00676679
0.00640365
0.00401033
0.00337606
0.0048541
0.00612968
0.00656337
0.00648421
0.00596596
0.00561933
0.00595479
0.00667482
0.00683699
0.00651971
0.0061859
0.00599992
0.00565949
0.00493112
0.00367161
0.00149345
-0.00323033
0.00197416
0.00406398
0.00391161
0.00330303
0.00479546
0.0041821
0.0028981
0.00336935
0.00490067
0.00680111
0.00644294
0.00398296
0.00327582
0.00482685
0.00616586
0.00657474
0.00646821
0.00595362
0.00553361
0.00591005
0.00660844
0.00680518
0.00641132
0.0060638
0.00585019
0.00539254
0.00436519
0.00286326
0.0011384
-0.00211606
0.00208331
0.00401424
0.00392889
0.00331149
0.00479289
0.00423396
0.00282783
0.00332375
0.00495297
0.00683426
0.00648068
0.00396666
0.00316471
0.00478979
0.00620735
0.00658315
0.00643903
0.00593602
0.00547038
0.00582372
0.00655503
0.00677356
0.00632261
0.00592206
0.00562978
0.00512954
0.00396564
0.00189353
-0.000654011
-0.00225476
0.00219376
0.00396639
0.0039407
0.00332495
0.00478646
0.00428975
0.00276209
0.00326735
0.00500872
0.00686552
0.00651845
0.00395969
0.00305599
0.00473407
0.0062638
0.00657818
0.00645899
0.00590633
0.00545962
0.00569297
0.00652146
0.00672455
0.0062795
0.00575448
0.00539192
0.00477407
0.00387879
0.00295743
0.00175751
-0.00182379
0.00230484
0.00392151
0.00394676
0.00334306
0.00477662
0.00434828
0.00270275
0.00320088
0.00506348
0.00690039
0.00654533
0.00397013
0.00293562
0.00467144
0.00630397
0.00662473
0.00635313
0.00592634
0.00534212
0.00565965
0.0064032
0.00673179
0.0062047
0.00564956
0.0052781
0.00456694
0.00276111
0.000253539
-0.00210971
-0.00189975
0.00241582
0.00388072
0.00394703
0.00336506
0.00476419
0.00440762
0.00265254
0.00312378
0.00511666
0.00693763
0.00656993
0.00398347
0.00283336
0.00457456
0.00636526
0.00663625
0.00634313
0.00587266
0.00535811
0.00553429
0.00631543
0.00670608
0.00617162
0.00552956
0.00516731
0.00464369
0.00381369
0.00261467
0.000807984
-0.00304045
0.00252596
0.00384499
0.00394169
0.00339013
0.0047501
0.00446596
0.00261301
0.00303738
0.00516418
0.00698026
0.00658797
0.00400439
0.00273989
0.00445845
0.00641469
0.00666192
0.0062938
0.00580423
0.00536632
0.00539761
0.00621934
0.00665846
0.00616564
0.00543577
0.00511376
0.00486682
0.00394987
0.00192724
-0.00113219
-0.00664907
0.00263447
0.00381604
0.00393123
0.00341737
0.00473516
0.00452209
0.00258477
0.00294471
0.00520185
0.00703093
0.00659517
0.0040376
0.00265186
0.00434043
0.00643731
0.00676493
0.00621696
0.00575233
0.00534715
0.00535472
0.00607396
0.00660619
0.00619439
0.00538874
0.00498333
0.00467582
0.0036703
0.00171275
-0.00140179
-0.00686047
0.00274057
0.00379268
0.00391641
0.00344558
0.00472054
0.00457378
0.00256877
0.00284558
0.00522948
0.00708701
0.0066027
0.00405684
0.0025872
0.00420352
0.00643789
0.00683581
0.00617166
0.00566652
0.00533027
0.00532199
0.00593418
0.00652742
0.00623233
0.00536847
0.00478399
0.00423075
0.00315012
0.00128245
-0.00134986
-0.00606964
0.00284355
0.0037762
0.00389816
0.00347376
0.00470692
0.00462068
0.00256387
0.00274587
0.00524265
0.00715056
0.00660451
0.00408213
0.00253505
0.00407064
0.00640917
0.00691989
0.00612646
0.00556767
0.00529144
0.00531486
0.0058056
0.0064219
0.00623205
0.00538039
0.00463164
0.0039593
0.0025117
-0.000216035
-0.00362553
-0.0059019
0.00294272
0.00376678
0.00387763
0.00350084
0.00469513
0.00466155
0.0025693
0.00264719
0.00524194
0.00721665
0.00660913
0.00408821
0.00250158
0.00392916
0.00636169
0.00698944
0.00614103
0.00543489
0.00524464
0.00530166
0.00572313
0.00627426
0.00620349
0.00537888
0.00454489
0.00393305
0.00299491
0.00122385
-0.0018616
-0.00748532
0.00303749
0.00376433
0.00385609
0.00352592
0.0046857
0.00469604
0.00258331
0.00255419
0.00522677
0.00728386
0.00661651
0.00408629
0.00247828
0.00380103
0.00628709
0.00704853
0.00615779
0.00532023
0.00516498
0.00529187
0.00565972
0.00613399
0.0061277
0.00538814
0.00454059
0.00391353
0.0029781
0.000850206
-0.00300301
-0.00952787
0.00312738
0.00376849
0.00383481
0.00354841
0.00467881
0.00472438
0.00260376
0.00246844
0.00519736
0.00734961
0.00662788
0.0040783
0.00245705
0.00371881
0.00618927
0.00709159
0.00618202
0.00523173
0.00505728
0.00527813
0.00561512
0.00600723
0.00602206
0.00538942
0.00450988
0.00374451
0.00260743
0.000377432
-0.00347836
-0.00962876
0.00321207
0.00377876
0.00381496
0.00356783
0.00467453
0.00474623
0.00262862
0.00239121
0.00515679
0.00740746
0.00664585
0.00406052
0.00244178
0.00360407
0.00608506
0.00710734
0.00622295
0.00515466
0.00494052
0.00523523
0.00559116
0.00589354
0.00590775
0.00533917
0.00441113
0.00348072
0.00237251
0.000374827
-0.00328066
-0.00978386
0.00329139
0.00379445
0.00379615
0.00358398
0.00467256
0.00476292
0.00265499
0.00232422
0.0051065
0.00745715
0.00666758
0.00404188
0.00241573
0.00354115
0.00597325
0.00709961
0.00625962
0.00509903
0.00481816
0.00517114
0.00556281
0.00580556
0.0057755
0.00525293
0.00435279
0.00329106
0.0018605
-0.000434795
-0.00413943
-0.00979301
0.00336529
0.00381475
0.00378181
0.00359691
0.00467266
0.00477485
0.00268134
0.00226706
0.0050513
0.0074935
0.00669599
0.00401444
0.00239329
0.00345965
0.00587154
0.00706458
0.00629211
0.00505741
0.00470404
0.00508468
0.00552614
0.00573563
0.00563566
0.00513209
0.0042787
0.00326963
0.00197213
-0.000178314
-0.00395709
-0.0106884
0.0034338
0.00383878
0.00377118
0.00360705
0.00467427
0.00478308
0.00270525
0.00222025
0.00499179
0.00751897
0.00672388
0.00399536
0.00235681
0.00340004
0.00577332
0.00701659
0.00630447
0.00503301
0.00459836
0.004982
0.0054748
0.00566829
0.00551281
0.0050109
0.00419433
0.00313759
0.00167496
-0.00065618
-0.00456046
-0.0111588
0.0034971
0.00386552
0.00376459
0.00361484
0.00467689
0.0047883
0.0027257
0.00218248
0.00493212
0.00753228
0.0067499
0.00397995
0.00231368
0.00334679
0.00567893
0.00695756
0.00629945
0.00501495
0.00450347
0.00487291
0.00540397
0.00560266
0.00540551
0.00487897
0.00406933
0.00296585
0.00140975
-0.00100936
-0.00491832
-0.0113035
0.00355543
0.0038941
0.00376205
0.00362079
0.0046801
0.00479091
0.00274239
0.00215172
0.00487656
0.00753242
0.00677831
0.00395755
0.00227429
0.003284
0.00560125
0.00688498
0.00628238
0.00499107
0.00442272
0.00476208
0.00531565
0.00553348
0.00530129
0.00473565
0.00392272
0.00284781
0.00132317
-0.00107876
-0.00501806
-0.0117267
0.00360904
0.00392373
0.00376335
0.00362557
0.00468331
0.00479183
0.00275413
0.00212762
0.00482233
0.00752413
0.00679426
0.00394701
0.0022266
0.003228
0.00552492
0.00681495
0.00624589
0.00496381
0.004349
0.00465434
0.00521801
0.00545056
0.00520087
0.00460235
0.00378475
0.00270643
0.00111822
-0.00139603
-0.00543328
-0.0120546
0.0036583
0.00395365
0.00376816
0.00362963
0.00468629
0.00479114
0.00276158
0.00210747
0.00477483
0.00750629
0.00680561
0.00393443
0.00218021
0.00316934
0.005454
0.00674474
0.00619764
0.00492611
0.00428113
0.0045509
0.00511296
0.00535734
0.00510126
0.0044749
0.00363674
0.00254505
0.000945856
-0.00156551
-0.00559334
-0.0122779
0.00370353
0.00398331
0.00377588
0.00363347
0.00468869
0.00478934
0.00276479
0.00209009
0.00473008
0.00748252
0.00680905
0.00392097
0.00213514
0.0031088
0.00538653
0.00667372
0.00614131
0.00487925
0.00421449
0.00445235
0.00500484
0.0052575
0.00499765
0.00435035
0.00349017
0.00238936
0.00078528
-0.0017457
-0.00580538
-0.0124983
0.00374505
0.00401221
0.00378589
0.00363742
0.00469045
0.00478654
0.00276423
0.00207444
0.00469194
0.00745566
0.00680408
0.0039065
0.00209019
0.00304866
0.00531919
0.00660473
0.0060791
0.00482387
0.00414531
0.0043583
0.00489775
0.00515174
0.00489034
0.00422817
0.00334919
0.00223825
0.000625394
-0.00192497
-0.00600364
-0.0127013
0.00378313
0.00403998
0.00379756
0.00364165
0.00469153
0.00478281
0.00276056
0.00205914
0.00465801
0.0074262
0.0067922
0.00388822
0.00204656
0.00298798
0.00525277
0.00653653
0.00601364
0.00476076
0.00407327
0.00426695
0.0047924
0.00504349
0.00478039
0.00410777
0.0032139
0.00209198
0.000470667
-0.0020888
-0.00617923
-0.0128904
0.00381804
0.00406637
0.00381021
0.00364626
0.004692
0.00477818
0.00275422
0.0020436
0.00462704
0.00739586
0.00677402
0.00386612
0.00200321
0.00292764
0.00518668
0.00646862
0.00594594
0.00469261
0.00399797
0.00417673
0.0046892
0.00493513
0.00466926
0.00398926
0.00308408
0.00195209
0.000326122
-0.00223382
-0.00632313
-0.0130465
0.00384999
0.00409119
0.00382329
0.00365111
0.00469198
0.00477269
0.00274557
0.00202735
0.00459834
0.00736529
0.00675073
0.00383982
0.00195941
0.00286837
0.00512069
0.00640064
0.00587664
0.00462116
0.0039199
0.00408708
0.00458854
0.00482831
0.00455884
0.00387315
0.00295965
0.00182028
0.000189775
-0.00237436
-0.00647213
-0.0132022
0.00387912
0.00411431
0.00383635
0.00365605
0.00469149
0.00476642
0.00273499
0.00201015
0.00457102
0.00733486
0.00672363
0.00380928
0.00191468
0.00281004
0.00505536
0.00633267
0.00580628
0.00454741
0.00383988
0.00399801
0.00449043
0.0047241
0.0044507
0.00376035
0.00284048
0.00169484
5.93084e-05
-0.00250884
-0.00661014
-0.0133405
0.00390558
0.00413565
0.00384897
0.00366089
0.00469059
0.00475937
0.00272281
0.00199192
0.00454448
0.00730453
0.00669382
0.00377506
0.0018687
0.00275215
0.004991
0.00626494
0.00573544
0.00447229
0.0037591
0.0039098
0.00439468
0.00462279
0.00434577
0.00365161
0.00272664
0.00157541
-6.47707e-05
-0.0026355
-0.00673618
-0.0134689
0.00392947
0.00415515
0.00386088
0.0036654
0.00468921
0.0047517
0.00270916
0.00197272
0.00451821
0.00727426
0.00666189
0.00373811
0.00182125
0.00269466
0.00492753
0.00619788
0.00566437
0.0043967
0.00367835
0.00382297
0.0043016
0.00452485
0.00424455
0.00354726
0.00261821
0.0014627
-0.000180795
-0.00275389
-0.00685665
-0.0135884
0.00395091
0.00417275
0.00387186
0.00366937
0.00468733
0.00474341
0.00269423
0.00195087
0.00449178
0.00724391
0.00662863
0.00369898
0.00177248
0.00263737
0.00486521
0.00613191
0.00559373
0.00432112
0.00359799
0.00373787
0.0042118
0.00443093
0.0041475
0.00344747
0.00251545
0.00135724
-0.000288388
-0.0028637
-0.00697071
-0.0137074
0.00396997
0.00418847
0.00388171
0.00367263
0.00468485
0.00473459
0.00267853
0.0019296
0.00446523
0.00721359
0.00659449
0.00365826
0.0017228
0.00258019
0.00480387
0.00606726
0.0055245
0.00424644
0.0035185
0.00365459
0.00412524
0.00434131
0.00405518
0.00335269
0.00241848
0.00125823
-0.000388601
-0.00296305
-0.00706752
-0.0138122
0.00398674
0.00420229
0.00389029
0.00367512
0.00468168
0.00472519
0.00266224
0.00190745
0.00443839
0.00718325
0.00655965
0.00361673
0.00167282
0.00252339
0.00474323
0.00600397
0.00545701
0.00417355
0.00344085
0.00357373
0.00404198
0.00425575
0.00396741
0.00326326
0.00232772
0.0011659
-0.000483555
-0.00306348
-0.00717573
-0.013919
0.00400133
0.00421422
0.00389753
0.00367672
0.00467781
0.00471528
0.00264541
0.00188463
0.00441144
0.00715288
0.00652441
0.00357476
0.00162307
0.00246734
0.00468375
0.00594219
0.00539139
0.00410276
0.00336561
0.0034957
0.00396221
0.00417423
0.0038841
0.00317816
0.00224093
0.00107786
-0.00057188
-0.0031498
-0.00725893
-0.0140106
0.00401381
0.00422435
0.00390337
0.00367733
0.00467324
0.00470488
0.00262818
0.00186137
0.00438425
0.00712255
0.00648924
0.00353286
0.00157376
0.0024124
0.00462586
0.00588224
0.00532793
0.00403455
0.0032932
0.00342073
0.00388584
0.00409677
0.00380526
0.0030977
0.00215892
0.000994697
-0.000655948
-0.00323586
-0.0073487
-0.0140991
0.00402428
0.00423273
0.00390783
0.00367697
0.004668
0.00469407
0.00261067
0.00183791
0.00435702
0.00709249
0.00645441
0.00349134
0.00152525
0.00235892
0.00456982
0.00582445
0.00526707
0.00396937
0.003224
0.0033491
0.00381309
0.00402337
0.00373084
0.00302177
0.00208142
0.000916021
-0.000735463
-0.00331583
-0.0074284
-0.0141809
0.00403288
0.00423944
0.00391096
0.00367566
0.00466212
0.00468295
0.00259314
0.00181448
0.00433002
0.00706291
0.00642026
0.0034507
0.00147808
0.0023072
0.00451584
0.00576904
0.00520909
0.00390755
0.00315852
0.00328135
0.00374436
0.00395403
0.00366062
0.00295027
0.00200867
0.000842471
-0.0008092
-0.00338928
-0.00750178
-0.0142535
0.00403974
0.00424459
0.00391287
0.00367343
0.00465565
0.00467173
0.00257568
0.00179137
0.00430349
0.00703393
0.00638708
0.00341153
0.00143271
0.00225764
0.00446437
0.00571644
0.00515415
0.00384912
0.00309681
0.00321768
0.00367987
0.00388913
0.00359518
0.002884
0.00194147
0.000774491
-0.00087763
-0.00345789
-0.0075705
-0.0143237
0.00404504
0.00424833
0.00391369
0.00367043
0.00464868
0.00465986
0.00255849
0.00176891
0.00427769
0.0070058
0.00635526
0.00337425
0.00138958
0.00221064
0.00441576
0.00566684
0.0051025
0.00379448
0.00303939
0.00315858
0.00362007
0.0038291
0.00353487
0.00282308
0.00187964
0.000711755
-0.000940993
-0.00352167
-0.00763496
-0.01439
0.00404896
0.0042508
0.00391355
0.00366689
0.00464151
0.00464862
0.00254189
0.00174734
0.00425306
0.00697916
0.0063252
0.00333902
0.00134896
0.00216664
0.0043704
0.00562065
0.0050546
0.0037441
0.00298662
0.00310431
0.00356523
0.00377418
0.00347979
0.00276743
0.0018231
0.00065435
-0.000999152
-0.00358066
-0.00769521
-0.0144525
0.00405168
0.00425223
0.00391274
0.00366296
0.00463431
0.00463773
0.00252607
0.00172695
0.00422999
0.00695421
0.0062971
0.00330635
0.00131152
0.00212614
0.00432879
0.00557847
0.00501089
0.00369809
0.00293853
0.0030551
0.00351569
0.00372453
0.00342988
0.002717
0.00177203
0.000602563
-0.00105187
-0.00363457
-0.0077504
-0.01451
0.00405349
0.00425291
0.00391136
0.00365886
0.00462738
0.00462752
0.0025114
0.00170803
0.00420861
0.00693133
0.00627167
0.0032769
0.00127763
0.0020894
0.00429117
0.00554054
0.00497174
0.00365697
0.00289568
0.00301131
0.00347152
0.00368016
0.00338522
0.00267192
0.00172647
0.000556484
-0.00109847
-0.00368174
-0.00779856
-0.0145591
0.0040546
0.00425308
0.00390978
0.00365487
0.00462096
0.00461838
0.00249828
0.00169108
0.00418957
0.00691116
0.00624936
0.00325104
0.00124776
0.00205701
0.00425813
0.00550738
0.00493756
0.00362104
0.00285822
0.00297301
0.00343292
0.00364143
0.00334622
0.00263241
0.00168631
0.000515762
-0.00113963
-0.0037233
-0.00784066
-0.0146036
0.00405532
0.00425299
0.00390823
0.00365142
0.00461544
0.00461046
0.00248703
0.00167667
0.00417366
0.00689455
0.00623076
0.00322912
0.00122246
0.00202986
0.00423067
0.00548002
0.00490943
0.00359136
0.00282702
0.00294108
0.00340093
0.00360942
0.00331373
0.00259899
0.00165192
0.000480632
-0.00117533
-0.00375964
-0.00787767
-0.0146405
0.004056
0.0042529
0.00390689
0.00364869
0.00461132
0.00460408
0.00247752
0.00166509
0.00416179
0.00688247
0.0062166
0.00321164
0.00120206
0.00200852
0.00420993
0.0054598
0.00488835
0.00356855
0.00280291
0.00291673
0.00337693
0.0035856
0.00328956
0.00257404
0.00162608
0.000453983
-0.00120272
-0.00378785
-0.00790685
-0.0146708
0.00405692
0.00425332
0.0039065
0.00364746
0.00460906
0.00459925
0.00246898
0.00165491
0.0041526
0.00687414
0.00620606
0.00319677
0.00118363
0.00198933
0.00419189
0.00544256
0.00487015
0.00354837
0.00278122
0.00289481
0.00335569
0.00356519
0.00326958
0.00255392
0.00160542
0.000432546
-0.00122523
-0.00381196
-0.00793375
-0.0147036
0.0165786
0.0160952
0.014178
0.0121498
0.00997003
0.00726466
0.00381109
0.000152791
-0.00268162
-0.00409247
-0.0042273
-0.00363718
-0.0028237
-0.0020879
-0.00155549
-0.00121869
-0.00100879
-0.000874497
-0.000808598
-0.000817624
-0.000883634
-0.000962372
-0.00101647
-0.00104359
-0.00106822
-0.00111042
-0.00116627
-0.00121727
-0.0012526
-0.00127797
-0.00130561
-0.00134065
-0.00138031
-0.00141885
-0.00145379
-0.00148706
-0.00152179
-0.00155753
-0.0015911
-0.00162101
-0.00164781
-0.00167114
-0.00168958
-0.00170347
-0.0017125
-0.00171543
-0.00171117
-0.00170108
-0.00168618
-0.00166634
-0.00164138
-0.00161265
-0.00158133
-0.00154741
-0.00151183
-0.00147609
-0.00144074
-0.00140553
-0.00137065
-0.00133633
-0.00130211
-0.00126857
-0.00123687
-0.00120694
-0.0011774
-0.00114805
-0.00112046
-0.00109536
-0.00107173
-0.00104858
-0.00102651
-0.00100622
-0.000987626
-0.000970134
-0.000953861
-0.00093908
-0.000925893
-0.000913896
-0.000902833
-0.000892815
-0.000884006
-0.00087666
-0.00087057
-0.00086584
-0.000862181
-0.000859588
-0.000858168
-0.000857597
-0.000858059
-0.000859395
-0.000861828
-0.000865368
-0.000869869
-0.000875394
-0.000881818
-0.000889225
-0.000897564
-0.000906735
-0.000916696
-0.000927324
-0.000938654
-0.000950665
-0.000963246
-0.000976499
-0.000990451
-0.00100511
-0.00102034
-0.00103591
-0.00105207
-0.00106888
-0.00108601
-0.00110348
-0.00112148
-0.00114011
-0.00115915
-0.00117819
-0.00119768
-0.00121803
-0.00123868
-0.0012594
-0.00128024
-0.00130188
-0.00132419
-0.00134628
-0.00136818
-0.00139077
-0.00141436
-0.00143822
-0.00146173
-0.00148501
-0.00150914
-0.00153411
-0.00155914
-0.00158401
-0.00160906
-0.0016347
-0.00166073
-0.00168667
-0.00171261
-0.00173919
-0.00176642
-0.00179374
-0.00182085
-0.00184783
-0.00187549
-0.00190397
-0.0019326
-0.001961
-0.0019893
-0.00201815
-0.00204755
-0.00207713
-0.00210668
-0.00213646
-0.00216656
-0.00219694
-0.00222737
-0.00225798
-0.00228905
-0.00232021
-0.00235152
-0.00238307
-0.0024149
-0.00244698
-0.00247904
-0.00251115
-0.00254388
-0.00257696
-0.00261005
-0.002643
-0.00267612
-0.00270995
-0.00274404
-0.00277813
-0.00281208
-0.00284629
-0.00288132
-0.00291636
-0.00295135
-0.00298642
-0.00302161
-0.00305774
-0.00309369
-0.00312965
-0.00316575
-0.00320192
-0.00323906
-0.00327587
-0.00331316
-0.00335064
-0.00338796
-0.00342616
-0.00346412
-0.00350254
-0.00354138
-0.00357992
-0.00361867
-0.00365777
-0.00369733
-0.00373716
-0.00377718
-0.00381675
-0.00385686
-0.00389764
-0.00393846
-0.00397964
-0.00402053
-0.00406182
-0.00410367
-0.00414562
-0.00418777
-0.00423001
-0.00427247
-0.00431561
-0.00435862
-0.00440174
-0.00444527
-0.00448878
-0.0045331
-0.00457724
-0.00462167
-0.0046663
-0.00471111
-0.00475663
-0.00480183
-0.00484761
-0.00489348
-0.00493946
-0.00498642
-0.00503289
-0.00507987
-0.005127
-0.00517415
-0.0052222
-0.00527014
-0.00531843
-0.00536687