/*--------------------------------*- C++ -*----------------------------------*\
| =========                 |                                                 |
| \\      /  F ield         | OpenFOAM: The Open Source CFD Toolbox           |
|  \\    /   O peration     | Version:  v2006                                 |
|   \\  /    A nd           | Website:  www.openfoam.com                      |
|    \\/     M anipulation  |                                                 |
\*---------------------------------------------------------------------------*/
FoamFile
{
    version     2.0;
    format      ascii;
    class       surfaceScalarField;
    location    "0.1";
    object      phi;
}
// * * * * * * * * * * * * * * * * * * * * * * * * * * * * * * * * * * * * * //

dimensions      [0 3 -1 0 0 0 0];
oriented        oriented;


internalField   nonuniform List<scalar> 
52390
(
1.18572e-06
-6.56993e-07
1.16173e-06
8.92097e-07
1.17841e-06
-5.10409e-07
1.17176e-06
5.38227e-08
1.16703e-06
1.55684e-07
1.1752e-06
1.77475e-08
1.177e-06
-4.09962e-07
1.16948e-06
2.59628e-07
1.17241e-06
2.40839e-08
1.17466e-06
-4.17123e-08
1.17663e-06
-2.35213e-07
1.17237e-06
8.43927e-08
1.17408e-06
6.60074e-08
1.17322e-06
5.28464e-08
1.17694e-06
-1.13978e-07
1.17324e-06
-7.83143e-08
1.17532e-06
-3.87713e-08
1.17166e-06
4.62998e-08
1.17424e-06
1.39889e-08
1.17265e-06
3.77153e-08
1.17666e-06
-4.26163e-08
1.1706e-06
-6.06433e-08
1.17475e-06
-4.39989e-08
1.17142e-06
6.81297e-09
1.17284e-06
-2.7556e-08
1.16844e-06
3.07301e-08
1.17278e-06
1.65861e-08
1.16602e-06
1.06986e-08
1.16837e-06
3.84036e-08
-3.54067e-08
1.12841e-06
1.2426e-06
-6.75327e-07
1.22015e-06
9.14546e-07
1.23873e-06
-5.28991e-07
1.22992e-06
6.26275e-08
1.22545e-06
1.60162e-07
1.23307e-06
1.01273e-08
1.23565e-06
-4.1255e-07
1.22989e-06
2.65387e-07
1.23112e-06
2.28609e-08
1.23267e-06
-4.32699e-08
1.23488e-06
-2.37423e-07
1.2321e-06
8.71765e-08
1.23217e-06
6.59411e-08
1.23258e-06
5.24371e-08
1.23448e-06
-1.15881e-07
1.23181e-06
-7.5647e-08
1.23185e-06
-3.88099e-08
1.23146e-06
4.66921e-08
1.23062e-06
1.48238e-08
1.23281e-06
3.55254e-08
1.23226e-06
-4.20633e-08
1.23095e-06
-5.93369e-08
1.2292e-06
-4.22456e-08
1.23286e-06
3.15704e-09
1.22637e-06
-2.10684e-08
1.23128e-06
2.58189e-08
1.22516e-06
2.27066e-08
1.2291e-06
6.75763e-09
1.22131e-06
4.61961e-08
-1.35206e-08
1.19942e-06
1.29931e-06
-6.91851e-07
1.28409e-06
9.29764e-07
1.2989e-06
-5.43798e-07
1.29342e-06
6.81057e-08
1.28749e-06
1.66091e-07
1.29463e-06
2.99145e-09
1.2955e-06
-4.13421e-07
1.29391e-06
2.66973e-07
1.2922e-06
2.45723e-08
1.29446e-06
-4.55325e-08
1.29422e-06
-2.37185e-07
1.29512e-06
8.62855e-08
1.29259e-06
6.84708e-08
1.29486e-06
5.01619e-08
1.29297e-06
-1.13987e-07
1.29297e-06
-7.56534e-08
1.29037e-06
-3.62051e-08
1.29323e-06
4.38342e-08
1.28966e-06
1.83868e-08
1.29382e-06
3.13672e-08
1.29009e-06
-3.83337e-08
1.29093e-06
-6.01748e-08
1.2871e-06
-3.84203e-08
1.29129e-06
-1.03098e-09
1.28553e-06
-1.53021e-08
1.28822e-06
2.31242e-08
1.28577e-06
2.51557e-08
1.28373e-06
8.79541e-09
1.28544e-06
4.44883e-08
1.26509e-08
1.25927e-06
1.35706e-06
-7.04808e-07
1.35019e-06
9.36634e-07
1.35926e-06
-5.52867e-07
1.35806e-06
6.93082e-08
1.35186e-06
1.72291e-07
1.35734e-06
-2.48921e-09
1.35597e-06
-4.12053e-07
1.35871e-06
2.64236e-07
1.3546e-06
2.86789e-08
1.35649e-06
-4.74189e-08
1.35403e-06
-2.3473e-07
1.35801e-06
8.23096e-08
1.35476e-06
7.17127e-08
1.35703e-06
4.79014e-08
1.35247e-06
-1.09434e-07
1.35339e-06
-7.6568e-08
1.35075e-06
-3.35713e-08
1.3543e-06
4.02832e-08
1.35123e-06
2.14572e-08
1.35421e-06
2.83869e-08
1.35031e-06
-3.44304e-08
1.35019e-06
-6.00514e-08
1.3475e-06
-3.57342e-08
1.34977e-06
-3.3019e-09
1.34678e-06
-1.23081e-08
1.34728e-06
2.26244e-08
1.34723e-06
2.52015e-08
1.34307e-06
1.29615e-08
1.34591e-06
4.16482e-08
3.45498e-08
1.32401e-06
1.41646e-06
-7.12914e-07
1.41751e-06
9.35586e-07
1.42023e-06
-5.55589e-07
1.42242e-06
6.71147e-08
1.41763e-06
1.77082e-07
1.42077e-06
-5.62216e-09
1.41727e-06
-4.08556e-07
1.42314e-06
2.58369e-07
1.41824e-06
3.35731e-08
1.41869e-06
-4.78673e-08
1.4149e-06
-2.30942e-07
1.42046e-06
7.6754e-08
1.41836e-06
7.38145e-08
1.41951e-06
4.67499e-08
1.41382e-06
-1.03749e-07
1.41421e-06
-7.69599e-08
1.4128e-06
-3.21526e-08
1.41612e-06
3.69588e-08
1.41449e-06
2.30868e-08
1.41617e-06
2.6709e-08
1.41264e-06
-3.09056e-08
1.41144e-06
-5.88468e-08
1.40959e-06
-3.38822e-08
1.41082e-06
-4.53855e-09
1.40924e-06
-1.07261e-08
1.40927e-06
2.25972e-08
1.40985e-06
2.46184e-08
1.40546e-06
1.73502e-08
1.40715e-06
3.99579e-08
5.08696e-08
1.39083e-06
1.47849e-06
-7.15724e-07
1.48593e-06
9.28143e-07
1.48309e-06
-5.52746e-07
1.48687e-06
6.33295e-08
1.48485e-06
1.79102e-07
1.48581e-06
-6.58245e-09
1.48051e-06
-4.03257e-07
1.48797e-06
2.50908e-07
1.48383e-06
3.77119e-08
1.4827e-06
-4.6731e-08
1.47814e-06
-2.26388e-07
1.4841e-06
7.07934e-08
1.48373e-06
7.41875e-08
1.48409e-06
4.63915e-08
1.47807e-06
-9.77293e-08
1.47762e-06
-7.65118e-08
1.47703e-06
-3.15629e-08
1.48031e-06
3.36792e-08
1.47972e-06
2.36779e-08
1.48099e-06
2.54392e-08
1.47772e-06
-2.76354e-08
1.4759e-06
-5.70277e-08
1.47424e-06
-3.22231e-08
1.47499e-06
-5.28654e-09
1.47399e-06
-9.72376e-09
1.47399e-06
2.26004e-08
1.47469e-06
2.39171e-08
1.47064e-06
2.13949e-08
1.47112e-06
3.94832e-08
6.33453e-08
1.45864e-06
1.54416e-06
-7.13665e-07
1.55613e-06
9.16168e-07
1.54926e-06
-5.45874e-07
1.55301e-06
5.95751e-08
1.55415e-06
1.77962e-07
1.55384e-06
-6.26686e-09
1.54695e-06
-3.96371e-07
1.55489e-06
2.4297e-07
1.55224e-06
4.0359e-08
1.5502e-06
-4.46829e-08
1.54493e-06
-2.21126e-07
1.55074e-06
6.49851e-08
1.55172e-06
7.32066e-08
1.55212e-06
4.5997e-08
1.54604e-06
-9.16524e-08
1.54495e-06
-7.54254e-08
1.54447e-06
-3.10812e-08
1.54787e-06
3.02824e-08
1.54787e-06
2.36727e-08
1.54928e-06
2.40324e-08
1.54631e-06
-2.46677e-08
1.54412e-06
-5.48307e-08
1.54243e-06
-3.05396e-08
1.54276e-06
-5.61553e-09
1.54198e-06
-8.9412e-09
1.54196e-06
2.2616e-08
1.54245e-06
2.34338e-08
1.53922e-06
2.46228e-08
1.53848e-06
4.02208e-08
7.76321e-08
1.52419e-06
1.6142e-06
-7.07732e-07
1.62913e-06
9.01237e-07
1.61972e-06
-5.36464e-07
1.62266e-06
5.66365e-08
1.62638e-06
1.74237e-07
1.62585e-06
-5.73674e-09
1.6175e-06
-3.88018e-07
1.62538e-06
2.35084e-07
1.62418e-06
4.15668e-08
1.62205e-06
-4.25545e-08
1.61599e-06
-2.15065e-07
1.62149e-06
5.94832e-08
1.62321e-06
7.14826e-08
1.62418e-06
4.50287e-08
1.61816e-06
-8.56263e-08
1.61669e-06
-7.39546e-08
1.61592e-06
-3.03147e-08
1.61937e-06
2.68265e-08
1.61974e-06
2.33071e-08
1.6214e-06
2.23727e-08
1.61883e-06
-2.20976e-08
1.61635e-06
-5.23515e-08
1.61465e-06
-2.88357e-08
1.61456e-06
-5.52847e-09
1.61376e-06
-8.14199e-09
1.61383e-06
2.25453e-08
1.61351e-06
2.37535e-08
1.61198e-06
2.61503e-08
1.60962e-06
4.25874e-08
9.00583e-08
1.59719e-06
1.6889e-06
-6.99052e-07
1.70575e-06
8.84379e-07
1.6948e-06
-5.25511e-07
1.69696e-06
5.44718e-08
1.70225e-06
1.68947e-07
1.70224e-06
-5.7258e-09
1.69257e-06
-3.78347e-07
1.7003e-06
2.27352e-07
1.70008e-06
4.1789e-08
1.6984e-06
-4.08688e-08
1.69155e-06
-2.08223e-07
1.6968e-06
5.4233e-08
1.69879e-06
6.94929e-08
1.70044e-06
4.33802e-08
1.6945e-06
-7.96868e-08
1.69284e-06
-7.22918e-08
1.69172e-06
-2.9198e-08
1.69512e-06
2.34254e-08
1.69573e-06
2.27026e-08
1.69754e-06
2.05592e-08
1.69539e-06
-1.99481e-08
1.69268e-06
-4.96369e-08
1.69101e-06
-2.71658e-08
1.69058e-06
-5.10122e-09
1.68957e-06
-7.13262e-09
1.6899e-06
2.22158e-08
1.68828e-06
2.53696e-08
1.68901e-06
2.54209e-08
1.68514e-06
4.6465e-08
6.44625e-08
1.71073e-06
1.76823e-06
-6.88559e-07
1.78648e-06
8.66131e-07
1.77444e-06
-5.13478e-07
1.7763e-06
5.26145e-08
1.78221e-06
1.63042e-07
1.783e-06
-6.52182e-09
1.77222e-06
-3.67568e-07
1.77991e-06
2.19661e-07
1.78017e-06
4.15353e-08
1.77909e-06
-3.97953e-08
1.77159e-06
-2.0072e-07
1.77674e-06
4.90842e-08
1.7787e-06
6.75286e-08
1.7809e-06
4.11821e-08
1.77503e-06
-7.38159e-08
1.7733e-06
-7.05612e-08
1.77193e-06
-2.78263e-08
1.77519e-06
2.0164e-08
1.77598e-06
2.19148e-08
1.77778e-06
1.87594e-08
1.77603e-06
-1.81958e-08
1.77307e-06
-4.66843e-08
1.77153e-06
-2.56275e-08
1.77077e-06
-4.33655e-09
1.76963e-06
-5.99409e-09
1.76992e-06
2.19284e-08
1.76777e-06
2.7522e-08
1.76876e-06
2.44258e-08
1.7644e-06
5.08286e-08
4.12484e-08
1.78761e-06
1.85205e-06
-6.76861e-07
1.87147e-06
8.46711e-07
1.85849e-06
-5.00503e-07
1.86054e-06
5.05646e-08
1.86641e-06
1.57172e-07
1.86803e-06
-8.13282e-09
1.85635e-06
-3.55888e-07
1.86417e-06
2.1184e-07
1.8645e-06
4.11989e-08
1.86402e-06
-3.93139e-08
1.85599e-06
-1.92685e-07
1.86119e-06
4.38803e-08
1.86298e-06
6.57411e-08
1.86555e-06
3.86114e-08
1.85971e-06
-6.79811e-08
1.85798e-06
-6.88224e-08
1.85648e-06
-2.63314e-08
1.85955e-06
1.70977e-08
1.86051e-06
2.09557e-08
1.86215e-06
1.71199e-08
1.86075e-06
-1.6798e-08
1.85755e-06
-4.34918e-08
1.8562e-06
-2.42728e-08
1.85511e-06
-3.24308e-09
1.85398e-06
-4.86957e-09
1.85378e-06
2.21269e-08
1.85224e-06
2.90621e-08
1.85081e-06
2.58546e-08
1.84758e-06
5.40681e-08
5.40329e-08
1.83479e-06
1.94026e-06
-6.64285e-07
1.96079e-06
8.26183e-07
1.94687e-06
-4.86582e-07
1.94947e-06
4.79706e-08
1.95494e-06
1.51697e-07
1.9573e-06
-1.0487e-08
1.94485e-06
-3.43447e-07
1.95295e-06
2.03745e-07
1.95313e-06
4.10214e-08
1.95317e-06
-3.93595e-08
1.9447e-06
-1.8421e-07
1.95006e-06
3.85164e-08
1.95161e-06
6.41909e-08
1.95441e-06
3.58115e-08
1.94861e-06
-6.21748e-08
1.94686e-06
-6.70793e-08
1.94536e-06
-2.48301e-08
1.94818e-06
1.4274e-08
1.94933e-06
1.98133e-08
1.95071e-06
1.57319e-08
1.94962e-06
-1.56996e-08
1.94623e-06
-4.01012e-08
1.94501e-06
-2.30538e-08
1.94369e-06
-1.93025e-09
1.94252e-06
-3.69072e-09
1.94189e-06
2.27542e-08
1.94075e-06
3.01989e-08
1.93722e-06
2.93849e-08
1.93549e-06
5.57972e-08
6.82489e-08
1.92128e-06
2.03288e-06
-6.50974e-07
2.05451e-06
8.04553e-07
2.03961e-06
-4.71689e-07
2.04295e-06
4.46379e-08
2.04785e-06
1.46797e-07
2.05089e-06
-1.35326e-08
2.03777e-06
-3.30324e-07
2.04622e-06
1.95289e-07
2.04612e-06
4.11253e-08
2.04664e-06
-3.98801e-08
2.03778e-06
-1.75353e-07
2.04335e-06
3.29542e-08
2.04466e-06
6.2881e-08
2.04758e-06
3.28879e-08
2.04183e-06
-5.64302e-08
2.04005e-06
-6.52937e-08
2.03864e-06
-2.34209e-08
2.04116e-06
1.17497e-08
2.04252e-06
1.84608e-08
2.04361e-06
1.46418e-08
2.04275e-06
-1.48447e-08
2.03924e-06
-3.65847e-08
2.03806e-06
-2.18775e-08
2.03665e-06
-5.16676e-10
2.0353e-06
-2.34446e-09
2.0344e-06
2.3652e-08
2.03314e-06
3.14564e-08
2.02876e-06
3.37686e-08
2.02728e-06
5.72798e-08
7.87402e-08
2.01679e-06
2.13e-06
-6.36976e-07
2.15274e-06
7.81814e-07
2.13685e-06
-4.558e-07
2.14102e-06
4.04743e-08
2.14525e-06
1.42564e-07
2.14897e-06
-1.72515e-08
2.1352e-06
-3.16558e-07
2.14405e-06
1.86439e-07
2.14362e-06
4.1558e-08
2.14458e-06
-4.08369e-08
2.13539e-06
-1.66163e-07
2.14113e-06
2.72105e-08
2.14224e-06
6.1777e-08
2.1452e-06
2.99291e-08
2.13958e-06
-5.08163e-08
2.13769e-06
-6.34022e-08
2.13645e-06
-2.21843e-08
2.13863e-06
9.57654e-09
2.1402e-06
1.68845e-08
2.141e-06
1.38481e-08
2.14031e-06
-1.41581e-08
2.13677e-06
-3.30456e-08
2.13553e-06
-2.06326e-08
2.1341e-06
9.05509e-10
2.13252e-06
-7.6182e-10
2.1314e-06
2.47762e-08
2.12978e-06
3.30686e-08
2.12532e-06
3.82331e-08
2.12344e-06
5.91562e-08
8.23327e-08
2.11985e-06
2.23181e-06
-6.223e-07
2.25567e-06
7.5796e-07
2.23878e-06
-4.38908e-07
2.24381e-06
3.54415e-08
2.24733e-06
1.39044e-07
2.25172e-06
-2.16403e-08
2.23734e-06
-3.02185e-07
2.24659e-06
1.77195e-07
2.24582e-06
4.23211e-08
2.24718e-06
-4.2189e-08
2.23771e-06
-1.56699e-07
2.24358e-06
2.13427e-08
2.24454e-06
6.08154e-08
2.24744e-06
2.70257e-08
2.24206e-06
-4.54266e-08
2.23998e-06
-6.1328e-08
2.23899e-06
-2.11907e-08
2.24077e-06
7.79847e-09
2.24256e-06
1.50877e-08
2.24309e-06
1.33208e-08
2.24249e-06
-1.35632e-08
2.23902e-06
-2.95668e-08
2.23765e-06
-1.92646e-08
2.23621e-06
2.34634e-09
2.23444e-06
1.00067e-09
2.233e-06
2.62238e-08
2.2311e-06
3.49678e-08
2.22671e-06
4.26241e-08
2.2241e-06
6.17615e-08
8.56418e-08
2.22079e-06
2.33852e-06
-6.06944e-07
2.36349e-06
7.3299e-07
2.3456e-06
-4.21019e-07
2.35151e-06
2.95295e-08
2.35429e-06
1.36262e-07
2.35935e-06
-2.66928e-08
2.34441e-06
-2.87246e-07
2.35401e-06
1.67588e-07
2.35295e-06
4.33851e-08
2.35464e-06
-4.38802e-08
2.34498e-06
-1.47035e-07
2.35088e-06
1.54386e-08
2.35179e-06
5.9907e-08
2.35454e-06
2.42796e-08
2.34948e-06
-4.03686e-08
2.34714e-06
-5.89912e-08
2.34645e-06
-2.04955e-08
2.34781e-06
6.43656e-09
2.34979e-06
1.31047e-08
2.35012e-06
1.29952e-08
2.34952e-06
-1.29616e-08
2.34619e-06
-2.62443e-08
2.34464e-06
-1.77092e-08
2.34319e-06
3.79456e-09
2.34125e-06
2.94028e-09
2.3395e-06
2.79719e-08
2.33728e-06
3.71903e-08
2.33309e-06
4.68106e-08
2.32978e-06
6.50768e-08
9.26877e-08
2.32273e-06
2.45036e-06
-5.90905e-07
2.47643e-06
7.06912e-07
2.45756e-06
-4.02148e-07
2.46435e-06
2.27468e-08
2.46639e-06
1.34223e-07
2.47208e-06
-3.23891e-08
2.45664e-06
-2.71801e-07
2.46655e-06
1.57676e-07
2.46524e-06
4.46919e-08
2.46719e-06
-4.58314e-08
2.45743e-06
-1.37269e-07
2.46325e-06
9.61179e-09
2.46422e-06
5.89405e-08
2.4667e-06
2.18008e-08
2.46208e-06
-3.5747e-08
2.45942e-06
-5.63288e-08
2.45904e-06
-2.0121e-08
2.46001e-06
5.46578e-09
2.46209e-06
1.10262e-08
2.46234e-06
1.27439e-08
2.46157e-06
-1.21918e-08
2.45858e-06
-2.32527e-08
2.45665e-06
-1.57776e-08
2.4554e-06
5.04532e-09
2.45303e-06
5.30418e-09
2.45132e-06
2.96819e-08
2.44845e-06
4.00648e-08
2.44474e-06
5.05217e-08
2.44129e-06
6.85282e-08
9.5686e-08
2.43829e-06
2.56757e-06
-5.74181e-07
2.59474e-06
6.79743e-07
2.57492e-06
-3.82326e-07
2.58254e-06
1.51182e-08
2.58385e-06
1.32914e-07
2.59015e-06
-3.86895e-08
2.57429e-06
-2.55934e-07
2.58442e-06
1.47538e-07
2.58296e-06
4.61566e-08
2.58507e-06
-4.79369e-08
2.57531e-06
-1.27518e-07
2.58093e-06
3.99613e-09
2.58208e-06
5.77906e-08
2.58418e-06
1.96964e-08
2.58008e-06
-3.1645e-08
2.57707e-06
-5.33122e-08
2.57699e-06
-2.00465e-08
2.57764e-06
4.81656e-09
2.57969e-06
8.97445e-09
2.58e-06
1.24396e-08
2.57894e-06
-1.11317e-08
2.57636e-06
-2.06782e-08
2.57402e-06
-1.34383e-08
2.57292e-06
6.14411e-09
2.57029e-06
7.94193e-09
2.56839e-06
3.15751e-08
2.5654e-06
4.30621e-08
2.56129e-06
5.46316e-08
2.55839e-06
7.14285e-08
8.40515e-08
2.57002e-06
2.69042e-06
-5.56776e-07
2.71866e-06
6.51512e-07
2.69792e-06
-3.61594e-07
2.70636e-06
6.68596e-09
2.70697e-06
1.32304e-07
2.71381e-06
-4.55318e-08
2.69763e-06
-2.39753e-07
2.70788e-06
1.37282e-07
2.70637e-06
4.76661e-08
2.7085e-06
-5.00632e-08
2.6989e-06
-1.17923e-07
2.70416e-06
-1.26053e-09
2.70563e-06
5.63242e-08
2.70726e-06
1.80676e-08
2.70373e-06
-2.81203e-08
2.70037e-06
-4.99466e-08
2.70055e-06
-2.02259e-08
2.70094e-06
4.41954e-09
2.7029e-06
7.0202e-09
2.70326e-06
1.20753e-08
2.702e-06
-9.87452e-09
2.69957e-06
-1.82425e-08
2.69731e-06
-1.11771e-08
2.69568e-06
7.76733e-09
2.69368e-06
9.94502e-09
2.69052e-06
3.47402e-08
2.68904e-06
4.45368e-08
2.68258e-06
6.10928e-08
2.68028e-06
7.37279e-08
9.23281e-08
2.672e-06
2.81919e-06
-5.38697e-07
2.84845e-06
6.22255e-07
2.82686e-06
-3.40009e-07
2.83604e-06
-2.48945e-09
2.836e-06
1.32338e-07
2.8433e-06
-5.28262e-08
2.82694e-06
-2.23393e-07
2.83719e-06
1.27035e-07
2.83577e-06
4.90857e-08
2.83776e-06
-5.20532e-08
2.82847e-06
-1.08635e-07
2.83322e-06
-6.0132e-09
2.83512e-06
5.44228e-08
2.8362e-06
1.69873e-08
2.83327e-06
-2.51852e-08
2.82961e-06
-4.62876e-08
2.82995e-06
-2.05692e-08
2.83019e-06
4.17879e-09
2.83197e-06
5.23962e-09
2.83239e-06
1.16558e-08
2.83104e-06
-8.52425e-09
2.82851e-06
-1.57148e-08
2.82661e-06
-9.26953e-09
2.82429e-06
1.00834e-08
2.82297e-06
1.12654e-08
2.81871e-06
3.90027e-08
2.8184e-06
4.48459e-08
2.81076e-06
6.87319e-08
2.80812e-06
7.63677e-08
1.1635e-07
2.7841e-06
2.95416e-06
-5.1996e-07
2.98439e-06
5.92027e-07
2.96202e-06
-3.17646e-07
2.97186e-06
-1.2328e-08
2.97126e-06
1.3294e-07
2.97889e-06
-6.04532e-08
2.96251e-06
-2.07021e-07
2.9726e-06
1.16949e-07
2.97143e-06
5.02604e-08
2.9731e-06
-5.37304e-08
2.96428e-06
-9.9816e-08
2.96841e-06
-1.01387e-08
2.97083e-06
5.20064e-08
2.97134e-06
1.64723e-08
2.96893e-06
-2.27775e-08
2.96512e-06
-4.24714e-08
2.96545e-06
-2.09052e-08
2.96572e-06
3.91412e-09
2.96713e-06
3.82784e-09
2.96783e-06
1.09594e-08
2.96599e-06
-6.68401e-09
2.96415e-06
-1.38828e-08
2.96123e-06
-6.34815e-09
2.96036e-06
1.09592e-08
2.95676e-06
1.48642e-08
2.95546e-06
4.03031e-08
2.95069e-06
4.96136e-08
2.94964e-06
6.97839e-08
2.94457e-06
8.14312e-08
1.26996e-07
2.93393e-06
3.09563e-06
-5.00585e-07
3.12677e-06
5.60893e-07
3.10371e-06
-2.94595e-07
3.11412e-06
-2.27287e-08
3.11304e-06
1.34011e-07
3.12085e-06
-6.82595e-08
3.10466e-06
-1.90836e-07
3.11442e-06
1.07198e-07
3.11365e-06
5.10242e-08
3.11483e-06
-5.49122e-08
3.10664e-06
-9.16197e-08
3.11004e-06
-1.35436e-08
3.11301e-06
4.90364e-08
3.11299e-06
1.64972e-08
3.11101e-06
-2.08006e-08
3.10718e-06
-3.86428e-08
3.10736e-06
-2.1086e-08
3.10778e-06
3.49704e-09
3.1087e-06
2.90397e-09
3.10974e-06
9.92202e-09
3.10736e-06
-4.30449e-09
3.10635e-06
-1.2874e-08
3.10222e-06
-2.22001e-09
3.10292e-06
1.02661e-08
3.09726e-06
2.05226e-08
3.09864e-06
3.89186e-08
3.09019e-06
5.8065e-08
3.09356e-06
6.64141e-08
3.09172e-06
8.32704e-08
6.63717e-08
3.15235e-06
3.24393e-06
-4.80601e-07
3.27588e-06
5.28936e-07
3.25226e-06
-2.70968e-07
3.2631e-06
-3.35682e-08
3.26168e-06
1.35428e-07
3.26948e-06
-7.60572e-08
3.25371e-06
-1.75066e-07
3.26294e-06
9.79618e-08
3.26275e-06
5.12184e-08
3.26327e-06
-5.54294e-08
3.25582e-06
-8.41757e-08
3.25847e-06
-1.61891e-08
3.26197e-06
4.55371e-08
3.26148e-06
1.69872e-08
3.25981e-06
-1.91371e-08
3.25608e-06
-3.49077e-08
3.25608e-06
-2.10903e-08
3.25648e-06
3.09543e-09
3.25739e-06
1.99697e-09
3.25787e-06
9.44602e-09
3.2565e-06
-2.94272e-09
3.25356e-06
-9.92848e-09
3.25248e-06
-1.13731e-09
3.24906e-06
1.36801e-08
3.24878e-06
2.08057e-08
3.2437e-06
4.39935e-08
3.24411e-06
5.76588e-08
3.23508e-06
7.54401e-08
3.22889e-06
8.94624e-08
9.97053e-08
3.19556e-06
3.39937e-06
-4.60045e-07
3.43205e-06
4.96257e-07
3.40799e-06
-2.469e-07
3.41912e-06
-4.46997e-08
3.4175e-06
1.37042e-07
3.42507e-06
-8.36197e-08
3.40997e-06
-1.5997e-07
3.41851e-06
8.94242e-08
3.41902e-06
5.07064e-08
3.41874e-06
-5.51521e-08
3.41212e-06
-7.7558e-08
3.41405e-06
-1.81169e-08
3.41795e-06
4.16354e-08
3.41719e-06
1.77506e-08
3.4156e-06
-1.75497e-08
3.4122e-06
-3.15031e-08
3.41183e-06
-2.0718e-08
3.41239e-06
2.53024e-09
3.41302e-06
1.36976e-09
3.41339e-06
9.07018e-09
3.41215e-06
-1.70024e-09
3.40896e-06
-6.73506e-09
3.40814e-06
-3.17632e-10
3.40474e-06
1.70771e-08
3.40434e-06
2.12055e-08
3.40009e-06
4.82467e-08
3.3996e-06
5.81466e-08
3.39152e-06
8.35226e-08
3.38371e-06
9.72668e-08
1.37839e-07
3.34558e-06
3.56233e-06
-4.38963e-07
3.59561e-06
4.62974e-07
3.57126e-06
-2.22543e-07
3.58251e-06
-5.59554e-08
3.58087e-06
1.38682e-07
3.58793e-06
-9.06788e-08
3.5738e-06
-1.4584e-07
3.58146e-06
8.17614e-08
3.58278e-06
4.93869e-08
3.58163e-06
-5.40005e-08
3.57586e-06
-7.17913e-08
3.57715e-06
-1.94058e-08
3.58132e-06
3.74666e-08
3.58043e-06
1.86454e-08
3.57882e-06
-1.59395e-08
3.57575e-06
-2.84354e-08
3.57505e-06
-2.00196e-08
3.57578e-06
1.80026e-09
3.57589e-06
1.25928e-09
3.57688e-06
8.0767e-09
3.57422e-06
9.60424e-10
3.57351e-06
-6.01716e-09
3.56885e-06
4.33819e-09
3.57103e-06
1.48928e-08
3.56358e-06
2.86643e-08
3.56927e-06
4.25514e-08
3.55592e-06
7.14948e-08
3.56514e-06
7.43053e-08
3.56488e-06
9.75248e-08
6.58739e-08
3.63685e-06
3.73316e-06
-4.17413e-07
3.7669e-06
4.29228e-07
3.74243e-06
-1.98075e-07
3.75363e-06
-6.71472e-08
3.75215e-06
1.40156e-07
3.75839e-06
-9.69218e-08
3.74555e-06
-1.32996e-07
3.75219e-06
7.51266e-08
3.75436e-06
4.7216e-08
3.75233e-06
-5.19697e-08
3.74735e-06
-6.68156e-08
3.74817e-06
-2.0222e-08
3.75237e-06
3.32595e-08
3.75159e-06
1.94317e-08
3.74974e-06
-1.40915e-08
3.74719e-06
-2.58863e-08
3.74604e-06
-1.88659e-08
3.74697e-06
8.67203e-10
3.7467e-06
1.53159e-09
3.74759e-06
7.18671e-09
3.74564e-06
2.90972e-09
3.7428e-06
-3.18375e-09
3.74206e-06
5.08433e-09
3.73827e-06
1.86826e-08
3.73968e-06
2.72513e-08
3.73609e-06
4.61474e-08
3.73747e-06
7.01074e-08
3.72453e-06
8.72468e-08
3.70999e-06
1.12061e-07
1.0248e-07
3.67339e-06
3.91224e-06
-3.95463e-07
3.94629e-06
3.95177e-07
3.92191e-06
-1.73694e-07
3.93283e-06
-7.80661e-08
3.93173e-06
1.41255e-07
3.93681e-06
-1.02006e-07
3.92558e-06
-1.21765e-07
3.93108e-06
6.96288e-08
3.93408e-06
4.42194e-08
3.93125e-06
-4.91483e-08
3.92692e-06
-6.24806e-08
3.92747e-06
-2.07708e-08
3.93152e-06
2.921e-08
3.93095e-06
2.00002e-08
3.92892e-06
-1.20648e-08
3.9266e-06
-2.35629e-08
3.92553e-06
-1.77946e-08
3.92584e-06
5.51549e-10
3.92639e-06
9.87438e-10
3.92553e-06
8.04857e-09
3.92617e-06
2.26454e-09
3.9198e-06
3.1859e-09
3.92344e-06
1.44186e-09
3.9144e-06
2.77227e-08
3.92235e-06
1.93022e-08
3.91253e-06
5.59741e-08
3.9309e-06
5.17336e-08
3.90202e-06
1.16122e-07
3.88198e-06
1.32101e-07
1.54982e-07
3.82948e-06
4.09998e-06
-3.73193e-07
4.13415e-06
3.61002e-07
4.11008e-06
-1.49621e-07
4.1205e-06
-8.84865e-08
4.12e-06
1.41757e-07
4.12364e-06
-1.05642e-07
4.11427e-06
-1.12401e-07
4.11856e-06
6.53412e-08
4.12231e-06
4.04691e-08
4.11883e-06
-4.5672e-08
4.11496e-06
-5.8611e-08
4.11542e-06
-2.12294e-08
4.11919e-06
2.54397e-08
4.11885e-06
2.03418e-08
4.11673e-06
-9.94365e-09
4.11457e-06
-2.14079e-08
4.11341e-06
-1.66291e-08
4.1139e-06
6.2941e-11
4.11328e-06
1.60974e-09
4.11471e-06
6.61759e-09
4.11073e-06
6.24203e-09
4.11213e-06
1.78932e-09
4.10455e-06
9.02152e-09
4.11035e-06
2.19162e-08
4.09917e-06
3.04859e-08
4.11011e-06
4.50309e-08
4.10751e-06
5.43366e-08
4.14535e-06
7.82855e-08
4.19418e-06
8.32635e-08
8.37352e-08
4.26543e-06
4.2968e-06
-3.5069e-07
4.3309e-06
3.26905e-07
4.30737e-06
-1.26096e-07
4.31706e-06
-9.81718e-08
4.31738e-06
1.41436e-07
4.31938e-06
-1.07642e-07
4.312e-06
-1.0502e-07
4.31509e-06
6.2249e-08
4.31941e-06
3.61509e-08
4.31555e-06
-4.18163e-08
4.31182e-06
-5.48796e-08
4.31249e-06
-2.18983e-08
4.31572e-06
2.22062e-08
4.31585e-06
2.02117e-08
4.31334e-06
-7.4337e-09
4.31183e-06
-1.98937e-08
4.30976e-06
-1.45561e-08
4.31148e-06
-1.66231e-09
4.30881e-06
4.27916e-09
4.31251e-06
2.91775e-09
4.30577e-06
1.29851e-08
4.31058e-06
-3.02179e-09
4.29913e-06
2.04749e-08
4.31061e-06
1.04384e-08
4.29342e-06
4.7668e-08
4.30893e-06
2.95286e-08
4.30164e-06
6.16198e-08
4.36003e-06
1.99027e-08
4.4175e-06
2.57919e-08
-5.23761e-09
4.50647e-06
4.50314e-06
-3.28054e-07
4.53694e-06
2.93105e-07
4.51422e-06
-1.03382e-07
4.52293e-06
-1.06873e-07
4.52429e-06
1.40069e-07
4.52452e-06
-1.07868e-07
4.51916e-06
-9.96621e-08
4.52112e-06
6.02899e-08
4.52582e-06
3.14535e-08
4.52181e-06
-3.78058e-08
4.51806e-06
-5.11335e-08
4.5189e-06
-2.27367e-08
4.52188e-06
1.92265e-08
4.52186e-06
2.02309e-08
4.51999e-06
-5.56574e-09
4.51756e-06
-1.74604e-08
4.51707e-06
-1.40645e-08
4.51607e-06
-6.6316e-10
4.51734e-06
3.00492e-09
4.51471e-06
5.55108e-09
4.51703e-06
1.06618e-08
4.50952e-06
4.48495e-09
4.51403e-06
1.59709e-08
4.50674e-06
1.77236e-08
4.51338e-06
4.10354e-08
4.50945e-06
3.34508e-08
4.51533e-06
5.57395e-08
4.492e-06
4.32364e-08
4.45573e-06
6.20637e-08
5.06645e-08
4.39983e-06
4.71945e-06
-3.05392e-07
4.75272e-06
2.59838e-07
4.73108e-06
-8.1744e-08
4.73856e-06
-1.14355e-07
4.74116e-06
1.37468e-07
4.73955e-06
-1.06256e-07
4.73613e-06
-9.62433e-08
4.73717e-06
5.92523e-08
4.74189e-06
2.67302e-08
4.73816e-06
-3.40661e-08
4.73398e-06
-4.69607e-08
4.73527e-06
-2.4027e-08
4.73778e-06
1.67223e-08
4.73796e-06
2.00451e-08
4.73601e-06
-3.6152e-09
4.73401e-06
-1.54619e-08
4.7327e-06
-1.27506e-08
4.73253e-06
-4.96433e-10
4.73324e-06
2.29613e-09
4.72985e-06
8.9435e-09
4.73421e-06
6.30439e-09
4.72356e-06
1.51275e-08
4.73309e-06
6.44204e-09
4.71962e-06
3.11927e-08
4.73643e-06
2.42315e-08
4.7218e-06
4.80747e-08
4.72856e-06
4.89879e-08
4.69645e-06
7.53412e-08
4.69225e-06
6.62609e-08
8.73384e-08
4.65558e-06
4.94623e-06
-2.82826e-07
4.97871e-06
2.27357e-07
4.95841e-06
-6.14436e-08
4.96446e-06
-1.20407e-07
4.96845e-06
1.33485e-07
4.96499e-06
-1.02796e-07
4.96336e-06
-9.46146e-08
4.96372e-06
5.88951e-08
4.96819e-06
2.22614e-08
4.96493e-06
-3.08111e-08
4.9603e-06
-4.23333e-08
4.96181e-06
-2.55317e-08
4.96428e-06
1.42551e-08
4.96413e-06
2.01898e-08
4.96256e-06
-2.04519e-09
4.96065e-06
-1.35491e-08
4.95891e-06
-1.10174e-08
4.95943e-06
-1.01467e-09
4.9582e-06
3.52859e-09
4.95837e-06
8.77674e-09
4.95661e-06
8.05715e-09
4.95516e-06
1.65843e-08
4.9529e-06
8.69567e-09
4.95211e-06
3.19874e-08
4.95289e-06
2.34548e-08
4.95347e-06
4.74881e-08
4.95817e-06
4.42877e-08
4.94505e-06
8.84614e-08
4.90774e-06
1.03575e-07
1.22843e-07
4.87223e-06
5.18398e-06
-2.60492e-07
5.21541e-06
1.95926e-07
5.1967e-06
-4.27335e-08
5.20115e-06
-1.2485e-07
5.2066e-06
1.28033e-07
5.20137e-06
-9.75673e-08
5.20127e-06
-9.45103e-08
5.2013e-06
5.88612e-08
5.20515e-06
1.84089e-08
5.20266e-06
-2.83176e-08
5.19748e-06
-3.7156e-08
5.1991e-06
-2.71494e-08
5.20167e-06
1.16873e-08
5.20117e-06
2.06867e-08
5.1998e-06
-6.72982e-10
5.19831e-06
-1.20592e-08
5.19551e-06
-8.22157e-09
5.19762e-06
-3.12015e-09
5.19365e-06
7.49181e-09
5.19828e-06
4.15446e-09
5.18919e-06
1.71404e-08
5.19865e-06
7.1304e-09
5.18363e-06
2.37147e-08
5.19724e-06
1.83708e-08
5.18032e-06
4.03814e-08
5.19261e-06
3.51916e-08
5.19374e-06
4.31586e-08
5.26061e-06
2.15994e-08
5.34581e-06
1.83703e-08
1.60759e-08
5.45258e-06
5.43322e-06
-2.38524e-07
5.46334e-06
1.65808e-07
5.44646e-06
-2.58544e-08
5.44915e-06
-1.27538e-07
5.45609e-06
1.21088e-07
5.44927e-06
-9.07404e-08
5.45031e-06
-9.55564e-08
5.45043e-06
5.87461e-08
5.45337e-06
1.54654e-08
5.45175e-06
-2.67019e-08
5.44616e-06
-3.1563e-08
5.44756e-06
-2.8551e-08
5.45053e-06
8.72119e-09
5.44956e-06
2.16554e-08
5.44839e-06
4.99349e-10
5.44694e-06
-1.06067e-08
5.44483e-06
-6.1182e-09
5.44459e-06
-2.87735e-09
5.44441e-06
7.66908e-09
5.44351e-06
5.05418e-09
5.44177e-06
1.8888e-08
5.44183e-06
7.06468e-09
5.43823e-06
2.73166e-08
5.4399e-06
1.67009e-08
5.43686e-06
4.34158e-08
5.44249e-06
2.95612e-08
5.44038e-06
4.52738e-08
5.42893e-06
3.30489e-08
5.40193e-06
4.5371e-08
4.32916e-08
5.37471e-06
5.6945e-06
-2.17064e-07
5.72304e-06
1.37264e-07
5.7082e-06
-1.10181e-08
5.70904e-06
-1.28372e-07
5.71743e-06
1.12696e-07
5.70925e-06
-8.25584e-08
5.71101e-06
-9.73166e-08
5.71162e-06
5.8134e-08
5.71343e-06
1.36566e-08
5.71271e-06
-2.59833e-08
5.70692e-06
-2.57703e-08
5.70777e-06
-2.93973e-08
5.71138e-06
5.11136e-09
5.70984e-06
2.31888e-08
5.70899e-06
1.35551e-09
5.70712e-06
-8.74088e-09
5.70644e-06
-5.43723e-09
5.70315e-06
4.06848e-10
5.70726e-06
3.56288e-09
5.7005e-06
1.18121e-08
5.70664e-06
1.27522e-08
5.69654e-06
1.7166e-08
5.70612e-06
1.77323e-08
5.6953e-06
2.75259e-08
5.70766e-06
3.10534e-08
5.69564e-06
4.15811e-08
5.69266e-06
4.82497e-08
5.66608e-06
5.96317e-08
5.64995e-06
6.14983e-08
6.74334e-08
5.62581e-06
5.96838e-06
-1.96249e-07
5.9951e-06
1.1054e-07
5.98248e-06
1.60815e-09
5.98143e-06
-1.27325e-07
5.99114e-06
1.02986e-07
5.98193e-06
-7.33485e-08
5.9839e-06
-9.92836e-08
5.98543e-06
5.65955e-08
5.98594e-06
1.31465e-08
5.98604e-06
-2.60808e-08
5.98033e-06
-2.00566e-08
5.98037e-06
-2.94348e-08
5.98452e-06
9.57794e-10
5.98307e-06
2.46338e-08
5.98141e-06
3.02295e-09
5.98061e-06
-7.93975e-09
5.97907e-06
-3.90257e-09
5.97658e-06
2.90153e-09
5.97875e-06
1.39082e-09
5.97524e-06
1.53183e-08
5.97723e-06
1.07669e-08
5.97184e-06
2.25523e-08
5.97683e-06
1.27479e-08
5.97152e-06
3.28332e-08
5.97657e-06
2.60016e-08
5.96949e-06
4.86624e-08
5.96459e-06
5.31454e-08
5.94441e-06
7.98156e-08
5.92752e-06
7.8386e-08
8.71851e-08
5.90777e-06
6.25546e-06
-1.7622e-07
6.28014e-06
8.58647e-08
6.26983e-06
1.19094e-08
6.26694e-06
-1.24435e-07
6.27778e-06
9.21495e-08
6.2679e-06
-6.34649e-08
6.26961e-06
-1.00993e-07
6.27236e-06
5.38468e-08
6.27162e-06
1.38842e-08
6.27225e-06
-2.67086e-08
6.26701e-06
-1.48177e-08
6.26601e-06
-2.84373e-08
6.27052e-06
-3.55662e-09
6.26957e-06
2.55824e-08
6.26685e-06
5.75246e-09
6.26713e-06
-8.22917e-09
6.26448e-06
-1.25107e-09
6.26398e-06
3.4019e-09
6.26196e-06
3.41108e-09
6.26456e-06
1.27203e-08
6.25921e-06
1.61189e-08
6.26238e-06
1.93838e-08
6.25791e-06
1.72152e-08
6.26279e-06
2.79479e-08
6.25472e-06
3.40807e-08
6.26014e-06
4.32353e-08
6.26167e-06
5.16199e-08
6.25859e-06
8.28966e-08
6.23525e-06
1.01727e-07
1.00492e-07
6.22194e-06
6.55637e-06
-1.57119e-07
6.5788e-06
6.34303e-08
6.57085e-06
1.98571e-08
6.56627e-06
-1.19846e-07
6.57794e-06
8.04731e-08
6.56779e-06
-5.3316e-08
6.56878e-06
-1.01983e-07
6.57299e-06
4.96443e-08
6.57107e-06
1.58034e-08
6.57196e-06
-2.76051e-08
6.5675e-06
-1.03586e-08
6.56544e-06
-2.63771e-08
6.56993e-06
-8.03857e-09
6.56996e-06
2.55483e-08
6.56615e-06
9.56217e-09
6.56662e-06
-8.69456e-09
6.56485e-06
5.1326e-10
6.56291e-06
5.33823e-09
6.56223e-06
4.09155e-09
6.56298e-06
1.19786e-08
6.56058e-06
1.85176e-08
6.55998e-06
1.99815e-08
6.5586e-06
1.859e-08
6.56163e-06
2.49252e-08
6.558e-06
3.77076e-08
6.55685e-06
4.43861e-08
6.56349e-06
4.49753e-08
6.60083e-06
4.55578e-08
6.65667e-06
4.58875e-08
5.96728e-08
6.69749e-06
6.87175e-06
-1.39078e-07
6.89178e-06
4.33972e-08
6.88616e-06
2.54827e-08
6.88008e-06
-1.13765e-07
6.89227e-06
6.82782e-08
6.88223e-06
-4.32723e-08
6.8822e-06
-1.01958e-07
6.8878e-06
4.40482e-08
6.88512e-06
1.84869e-08
6.88568e-06
-2.81711e-08
6.88261e-06
-7.28605e-09
6.8791e-06
-2.2869e-08
6.88376e-06
-1.26982e-08
6.88406e-06
2.52496e-08
6.88091e-06
1.27092e-08
6.87886e-06
-6.63875e-09
6.88146e-06
-2.08731e-09
6.87443e-06
1.23621e-08
6.87864e-06
-1.17639e-10
6.87374e-06
1.68845e-08
6.87871e-06
1.35469e-08
6.86952e-06
2.91706e-08
6.87596e-06
1.21521e-08
6.87064e-06
3.02418e-08
6.88567e-06
2.26718e-08
6.88668e-06
4.33811e-08
6.87902e-06
5.26344e-08
6.83272e-06
9.18585e-08
6.77141e-06
1.07197e-07
7.87021e-08
6.75238e-06
7.20227e-06
-1.22207e-07
7.21979e-06
2.58696e-08
7.21639e-06
2.88856e-08
7.20908e-06
-1.06459e-07
7.22142e-06
5.59384e-08
7.21191e-06
-3.37588e-08
7.21055e-06
-1.006e-07
7.21751e-06
3.70862e-08
7.21427e-06
2.17338e-08
7.21446e-06
-2.83667e-08
7.21242e-06
-5.24447e-09
7.20848e-06
-1.89279e-08
7.21154e-06
-1.57625e-08
7.2146e-06
2.21891e-08
7.20838e-06
1.89308e-08
7.21035e-06
-8.60622e-09
7.20597e-06
2.28852e-09
7.21041e-06
7.92451e-09
7.19969e-06
1.06028e-08
7.21039e-06
6.18326e-09
7.19969e-06
2.42471e-08
7.20762e-06
2.12441e-08
7.19649e-06
2.32763e-08
7.20535e-06
2.13836e-08
7.19337e-06
3.46511e-08
7.2103e-06
2.64538e-08
7.24281e-06
2.01244e-08
7.33529e-06
-6.1577e-10
7.44668e-06
-4.19844e-09
8.25796e-09
7.51712e-06
7.54861e-06
-1.06587e-07
7.56358e-06
1.08972e-08