/*--------------------------------*- C++ -*----------------------------------*\
| =========                 |                                                 |
| \\      /  F ield         | OpenFOAM: The Open Source CFD Toolbox           |
|  \\    /   O peration     | Version:  v2006                                 |
|   \\  /    A nd           | Website:  www.openfoam.com                      |
|    \\/     M anipulation  |                                                 |
\*---------------------------------------------------------------------------*/
FoamFile
{
    version     2.0;
    format      ascii;
    class       volVectorField;
    location    "0.1";
    object      U;
}
// * * * * * * * * * * * * * * * * * * * * * * * * * * * * * * * * * * * * * //

dimensions      [0 1 -1 0 0 0 0];


internalField   nonuniform List<vector> 
26400
(
(0.962342 -0.00968204 0)
(1.06985 0.0139574 0)
(0.915553 -0.00836195 0)
(1.10171 0.000912692 0)
(0.906641 0.0028561 0)
(1.08629 0.000478802 0)
(0.92796 -0.00854438 0)
(1.08372 0.00564047 0)
(0.922741 0.000609289 0)
(1.08283 -0.000996169 0)
(0.928019 -0.00611785 0)
(1.08208 0.00226168 0)
(0.928352 0.00195998 0)
(1.07929 0.00161607 0)
(0.931846 -0.003648 0)
(1.08045 -0.00278615 0)
(0.930014 -0.00136822 0)
(1.07835 0.00169492 0)
(0.929829 0.00063885 0)
(1.0781 0.00158656 0)
(0.931703 -0.00182471 0)
(1.07994 -0.00311128 0)
(0.925563 -0.00209181 0)
(1.08363 0.000239084 0)
(0.923631 -0.00156894 0)
(1.08114 0.00170457 0)
(0.920405 0.00119294 0)
(1.0844 0.000440809 0)
(0.912464 0.00271114 0)
(1.08693 -0.00378288 0)
(0.965114 -0.010001 0)
(1.06579 0.0142671 0)
(0.926559 -0.00872939 0)
(1.09547 0.000987908 0)
(0.918158 0.00295112 0)
(1.07884 0.000271409 0)
(0.9387 -0.0086415 0)
(1.07634 0.00580663 0)
(0.936844 0.000545832 0)
(1.0732 -0.00105223 0)
(0.941746 -0.00620403 0)
(1.07159 0.00238263 0)
(0.944575 0.00192169 0)
(1.06609 0.00163665 0)
(0.950169 -0.00378487 0)
(1.06446 -0.00264257 0)
(0.950129 -0.00144389 0)
(1.05927 0.00182906 0)
(0.954588 0.000537269 0)
(1.05419 0.0016169 0)
(0.961742 -0.00200042 0)
(1.04968 -0.00280393 0)
(0.962253 -0.00230478 0)
(1.04491 0.000372854 0)
(0.970313 -0.00143922 0)
(1.03177 0.00179703 0)
(0.980134 0.00113512 0)
(1.02025 0.000557013 0)
(0.989623 0.00338945 0)
(1.00316 -0.00321757 0)
(0.969967 -0.0102927 0)
(1.05731 0.0146511 0)
(0.942761 -0.00903627 0)
(1.08191 0.00115553 0)
(0.93794 0.00306356 0)
(1.06546 0.000117504 0)
(0.955211 -0.00867325 0)
(1.06197 0.00592679 0)
(0.958431 0.000540777 0)
(1.05627 -0.0010996 0)
(0.961867 -0.00622412 0)
(1.05307 0.00242947 0)
(0.968327 0.00195291 0)
(1.04602 0.0015937 0)
(0.97421 -0.00377973 0)
(1.04098 -0.00259705 0)
(0.975727 -0.00137711 0)
(1.0345 0.00176615 0)
(0.982416 0.000669949 0)
(1.02823 0.00143955 0)
(0.989428 -0.0018238 0)
(1.02183 -0.00290328 0)
(0.990361 -0.00202205 0)
(1.01693 2.11714e-05 0)
(0.996174 -0.000966716 0)
(1.0079 0.00138598 0)
(1.00016 0.00161232 0)
(1.00398 0.000495346 0)
(1.00075 0.002915 0)
(1.00053 0.000408077 0)
(0.9761 -0.0105133 0)
(1.04539 0.0148674 0)
(0.960518 -0.00923455 0)
(1.06294 0.00124586 0)
(0.959749 0.00318222 0)
(1.049 -3.2878e-06 0)
(0.971838 -0.00865642 0)
(1.04424 0.00591268 0)
(0.979535 0.00061732 0)
(1.03732 -0.00115321 0)
(0.979769 -0.00617862 0)
(1.0332 0.00234972 0)
(0.988517 0.00205076 0)
(1.0276 0.00151382 0)
(0.991978 -0.00365497 0)
(1.02088 -0.00263361 0)
(0.992646 -0.00126067 0)
(1.01662 0.00162159 0)
(0.998254 0.000828862 0)
(1.01317 0.0012708 0)
(1.00156 -0.00164413 0)
(1.00819 -0.00293205 0)
(0.999808 -0.00185236 0)
(1.00621 -0.000145842 0)
(1.00181 -0.000751399 0)
(1.00205 0.00135796 0)
(1.00239 0.00162271 0)
(1.00179 0.000708117 0)
(1.00073 0.00295581 0)
(1.00064 0.00209821 0)
(0.982463 -0.0106649 0)
(1.032 0.0149103 0)
(0.976666 -0.00931877 0)
(1.04247 0.00123326 0)
(0.978119 0.00328839 0)
(1.03332 -8.73395e-05 0)
(0.984508 -0.00860045 0)
(1.02752 0.00580526 0)
(0.994689 0.000733581 0)
(1.02154 -0.00118955 0)
(0.990807 -0.0060913 0)
(1.01749 0.00220403 0)
(0.999939 0.0021376 0)
(1.01531 0.0014564 0)
(1.00027 -0.00348137 0)
(1.00852 -0.00266274 0)
(0.998928 -0.00118822 0)
(1.00719 0.00148757 0)
(1.00314 0.00092003 0)
(1.00673 0.00117797 0)
(1.00383 -0.00148665 0)
(1.00291 -0.00287289 0)
(1.00039 -0.00176761 0)
(1.00226 -0.000218412 0)
(1.00096 -0.000637403 0)
(1 0.00136825 0)
(1.0013 0.0015571 0)
(1.00059 0.00107681 0)
(0.999714 0.00276863 0)
(0.999907 0.00343056 0)
(0.988071 -0.0107413 0)
(1.01939 0.0148319 0)
(0.989121 -0.00930409 0)
(1.0244 0.00116562 0)
(0.990283 0.00335416 0)
(1.02122 -0.000126411 0)
(0.992014 -0.00850536 0)
(1.01463 0.0056469 0)
(1.00271 0.000842202 0)
(1.01113 -0.00117972 0)
(0.995392 -0.00598029 0)
(1.00743 0.00203787 0)
(1.00381 0.0021715 0)
(1.00858 0.00143588 0)
(1.00227 -0.00328858 0)
(1.00226 -0.00265801 0)
(0.999254 -0.0011585 0)
(1.00253 0.00136072 0)
(1.00294 0.000960208 0)
(1.00378 0.00112146 0)
(1.00286 -0.00132567 0)
(1.00049 -0.00279751 0)
(0.998853 -0.00168448 0)
(0.999925 -0.000261608 0)
(0.99906 -0.000587545 0)
(0.998222 0.00137882 0)
(0.999693 0.00152045 0)
(0.999204 0.00130561 0)
(0.998507 0.00287364 0)
(0.999027 0.00425602 0)
(0.992333 -0.0107418 0)
(1.00924 0.0146675 0)
(0.997336 -0.00921565 0)
(1.01103 0.00109061 0)
(0.996444 0.00335928 0)
(1.01343 -0.000128932 0)
(0.995446 -0.00837683 0)
(1.0061 0.00546904 0)
(1.0055 0.000920929 0)
(1.00539 -0.00113284 0)
(0.99632 -0.00585329 0)
(1.00177 0.00187253 0)
(1.00372 0.00215784 0)
(1.00511 0.00142943 0)
(1.00184 -0.00308949 0)
(0.99931 -0.00262708 0)
(0.997823 -0.00114287 0)
(0.999884 0.00122986 0)
(1.00144 0.000972511 0)
(1.00195 0.00106566 0)
(1.0015 -0.00117866 0)
(0.999069 -0.00270375 0)
(0.997412 -0.00158877 0)
(0.998219 -0.00030674 0)
(0.997408 -0.000521784 0)
(0.996639 0.00135886 0)
(0.998184 0.0015293 0)
(0.997921 0.00145804 0)
(0.997461 0.00296861 0)
(0.998297 0.00529094 0)
(0.99515 -0.0106777 0)
(1.00222 0.0144438 0)
(1.00198 -0.0090773 0)
(1.00265 0.00102876 0)
(0.998551 0.00330802 0)
(1.00913 -0.000116819 0)
(0.996634 -0.00821818 0)
(1.00109 0.00529115 0)
(1.00565 0.000964316 0)
(1.00259 -0.00107593 0)
(0.996016 -0.00570726 0)
(0.99878 0.00171638 0)
(1.00245 0.00211529 0)
(1.00323 0.0014108 0)
(1.00102 -0.0028912 0)
(0.997947 -0.00257964 0)
(0.996509 -0.00112217 0)
(0.998242 0.00109791 0)
(1.00006 0.000962389 0)
(1.00067 0.00100021 0)
(1.00046 -0.00105582 0)
(0.998222 -0.0025832 0)
(0.996487 -0.00151057 0)
(0.997083 -0.000305286 0)
(0.996273 -0.000491228 0)
(0.995478 0.00139915 0)
(0.997037 0.00143101 0)
(0.996946 0.00184249 0)
(0.996808 0.00254753 0)
(0.997829 0.00706163 0)
(0.996783 -0.0105656 0)
(0.998022 0.0141834 0)
(1.0042 -0.00890757 0)
(0.9982 0.000983818 0)
(0.998724 0.00321861 0)
(1.007 -0.000109972 0)
(0.996958 -0.00803015 0)
(0.998415 0.00511848 0)
(1.00499 0.000978592 0)
(1.00129 -0.00102699 0)
(0.995634 -0.00553898 0)
(0.997307 0.00156883 0)
(1.00129 0.00205945 0)
(1.00215 0.00136942 0)
(1.00042 -0.00269523 0)
(0.997355 -0.00252491 0)
(0.995733 -0.00108658 0)
(0.997287 0.000964863 0)
(0.999127 0.000940503 0)
(0.999838 0.000923008 0)
(0.999772 -0.000950946 0)
(0.99776 -0.00245364 0)
(0.996009 -0.00143308 0)
(0.99644 -0.000274561 0)
(0.99562 -0.000464498 0)
(0.994777 0.00141633 0)
(0.996316 0.00144563 0)
(0.996311 0.0019478 0)
(0.996583 0.00273006 0)
(0.997627 0.00651442 0)
(0.99763 -0.0104207 0)
(0.995849 0.0139 0)
(1.00505 -0.00871667 0)
(0.99621 0.000949862 0)
(0.99835 0.00311073 0)
(1.00599 -0.000117854 0)
(0.997074 -0.00781586 0)
(0.997152 0.00494866 0)
(1.00433 0.000976206 0)
(1.00066 -0.000992933 0)
(0.995446 -0.00535051 0)
(0.99668 0.00142588 0)
(1.00058 0.00200118 0)
(1.00153 0.00130786 0)
(1.00007 -0.00250213 0)
(0.997146 -0.002467 0)
(0.995399 -0.00103869 0)
(0.99682 0.000833888 0)
(0.99861 0.000915462 0)
(0.999357 0.000838688 0)
(0.999347 -0.000856109 0)
(0.997536 -0.00232699 0)
(0.995811 -0.00133333 0)
(0.996145 -0.00026728 0)
(0.995296 -0.000351508 0)
(0.994465 0.00127188 0)
(0.995886 0.00179171 0)
(0.996056 0.00144725 0)
(0.996419 0.00399263 0)
(0.997831 0.00318565 0)
(0.998043 -0.0102537 0)
(0.994875 0.0135987 0)
(1.00527 -0.00850831 0)
(0.995509 0.00091706 0)
(0.99801 0.00299899 0)
(1.00548 -0.000142251 0)
(0.997176 -0.00758025 0)
(0.996667 0.00477774 0)
(1.00388 0.000968296 0)
(1.00032 -0.00097442 0)
(0.995407 -0.00514634 0)
(0.996509 0.00128326 0)
(1.00023 0.00194607 0)
(1.00119 0.00123267 0)
(0.999878 -0.00231156 0)
(0.997112 -0.00240652 0)
(0.995327 -0.000986716 0)
(0.996651 0.000713196 0)
(0.99837 0.000877986 0)
(0.999095 0.000768826 0)
(0.999081 -0.00079234 0)
(0.997428 -0.00217036 0)
(0.99577 -0.00126742 0)
(0.996038 -0.000208598 0)
(0.995179 -0.000297347 0)
(0.994381 0.00127973 0)
(0.99566 0.00187836 0)
(0.996038 0.00152569 0)
(0.996252 0.00417993 0)
(0.998309 0.00272931 0)
(0.998253 -0.0100714 0)
(0.994499 0.0132807 0)
(1.00521 -0.00828328 0)
(0.995382 0.000877043 0)
(0.997816 0.00289208 0)
(1.00517 -0.000182036 0)
(0.997287 -0.00732726 0)
(0.996566 0.00460203 0)
(1.0036 0.000962009 0)
(1.0001 -0.000969815 0)
(0.995436 -0.00492969 0)
(0.996559 0.0011371 0)
(1.0001 0.00189778 0)
(1.001 0.00114789 0)
(0.999756 -0.00211988 0)
(0.997147 -0.00234801 0)
(0.995383 -0.00092913 0)
(0.99663 0.000595863 0)
(0.998284 0.000836784 0)
(0.998941 0.000702962 0)
(0.998906 -0.000739925 0)
(0.997359 -0.00200578 0)
(0.995813 -0.00121265 0)
(0.996001 -0.000132727 0)
(0.995189 -0.000256577 0)
(0.994383 0.0013627 0)
(0.995604 0.00184475 0)
(0.996053 0.00194795 0)
(0.996322 0.00373441 0)
(0.998813 0.00466162 0)
(0.998384 -0.00987695 0)
(0.994375 0.0129456 0)
(1.00507 -0.00804162 0)
(0.995477 0.000824911 0)
(0.997721 0.00279457 0)
(1.00494 -0.000235894 0)
(0.997399 -0.00705906 0)
(0.996635 0.00441885 0)
(1.00341 0.000961107 0)
(0.999928 -0.000977442 0)
(0.995489 -0.00470243 0)
(0.996703 0.000985324 0)
(1.00007 0.00185691 0)
(1.00086 0.00105798 0)
(0.999666 -0.00193014 0)
(0.997203 -0.0022875 0)
(0.995491 -0.000875005 0)
(0.996673 0.000492485 0)
(0.998268 0.000784231 0)
(0.99884 0.000650124 0)
(0.998771 -0.000696072 0)
(0.997309 -0.00184171 0)
(0.995885 -0.00114668 0)
(0.996004 -6.58039e-05 0)
(0.995241 -0.000174957 0)
(0.994444 0.00140165 0)
(0.995605 0.0019369 0)
(0.996115 0.00219049 0)
(0.996527 0.00376771 0)
(0.999298 0.00587393 0)
(0.998488 -0.00967182 0)
(0.994345 0.0125933 0)
(1.00489 -0.0077832 0)
(0.995648 0.000758314 0)
(0.997671 0.00270885 0)
(1.00473 -0.000303107 0)
(0.997511 -0.00677683 0)
(0.996767 0.00422688 0)
(1.00325 0.000967715 0)
(0.99977 -0.000996694 0)
(0.995548 -0.00446538 0)
(0.996881 0.000827624 0)
(1.00008 0.00182282 0)
(1.00076 0.000966222 0)
(0.999585 -0.00174498 0)
(0.997266 -0.00222329 0)
(0.995614 -0.000828923 0)
(0.996739 0.000407579 0)
(0.998277 0.000716648 0)
(0.998762 0.000619512 0)
(0.998651 -0.000672944 0)
(0.997271 -0.00166041 0)
(0.995963 -0.0010938 0)
(0.996027 2.17444e-05 0)
(0.995307 -9.97496e-05 0)
(0.994537 0.00146557 0)
(0.995634 0.00203434 0)
(0.99621 0.0024428 0)
(0.996795 0.00397757 0)
(0.999764 0.00635938 0)
(0.998585 -0.00945644 0)
(0.994347 0.0122233 0)
(1.0047 -0.00750786 0)
(0.995843 0.000676298 0)
(0.997638 0.00263621 0)
(1.00453 -0.000383809 0)
(0.997623 -0.00648107 0)
(0.996921 0.00402601 0)
(1.0031 0.000982642 0)
(0.999616 -0.0010267 0)
(0.995606 -0.00421986 0)
(0.997071 0.000665245 0)
(1.0001 0.00179413 0)
(1.00066 0.000875048 0)
(0.999507 -0.00156299 0)
(0.997329 -0.00215858 0)
(0.995741 -0.000784182 0)
(0.996815 0.000326792 0)
(0.998295 0.000654875 0)
(0.998696 0.000582609 0)
(0.998537 -0.000631434 0)
(0.99724 -0.00150767 0)
(0.99604 -0.00100763 0)
(0.996066 7.42531e-05 0)
(0.995373 3.17485e-05 0)
(0.994655 0.00148512 0)
(0.995678 0.00221629 0)
(0.996339 0.0026262 0)
(0.997067 0.00431478 0)
(1.00023 0.00645957 0)
(0.99868 -0.00923082 0)
(0.994361 0.0118357 0)
(1.0045 -0.00721564 0)
(0.996047 0.000578608 0)
(0.997608 0.00257723 0)
(1.00433 -0.000477903 0)
(0.997737 -0.00617309 0)
(0.997082 0.00381688 0)
(1.00296 0.00100472 0)
(0.999464 -0.00106555 0)
(0.995663 -0.00396895 0)
(0.997265 0.000501574 0)
(1.00012 0.00176753 0)
(1.00057 0.000786968 0)
(0.99943 -0.00139052 0)
(0.99739 -0.0020815 0)
(0.995867 -0.000756391 0)
(0.996892 0.000270362 0)
(0.998318 0.000573476 0)
(0.998636 0.000567168 0)
(0.99843 -0.000608027 0)
(0.997213 -0.00134032 0)
(0.996118 -0.000938024 0)
(0.996111 0.000160747 0)
(0.995447 0.000118836 0)
(0.994782 0.0016229 0)
(0.995745 0.00229183 0)
(0.996484 0.0029955 0)
(0.997356 0.00442616 0)
(1.00069 0.00683645 0)
(0.998777 -0.00899491 0)
(0.994381 0.0114302 0)
(1.00431 -0.0069067 0)
(0.996255 0.000465236 0)
(0.997578 0.00253197 0)
(1.00412 -0.000584584 0)
(0.997851 -0.00585448 0)
(0.997247 0.00359877 0)
(1.00281 0.00103396 0)
(0.999314 -0.00111215 0)
(0.995718 -0.00371323 0)
(0.99746 0.000336979 0)
(1.00015 0.00174215 0)
(1.00049 0.000703502 0)
(0.999355 -0.00123215 0)
(0.997446 -0.00199273 0)
(0.995993 -0.000739965 0)
(0.996968 0.000228505 0)
(0.998344 0.000486909 0)
(0.998579 0.000560367 0)
(0.99833 -0.000589575 0)
(0.997188 -0.00117008 0)
(0.996198 -0.000876323 0)
(0.99616 0.000276653 0)
(0.995535 0.000180374 0)
(0.994912 0.00182177 0)
(0.995842 0.00232567 0)
(0.99663 0.00345345 0)
(0.997672 0.00446576 0)
(1.00113 0.00715444 0)
(0.998874 -0.00874874 0)
(0.994406 0.0110072 0)
(1.0041 -0.00658141 0)
(0.996466 0.000336432 0)
(0.997548 0.00250071 0)
(1.00392 -0.000704306 0)
(0.997967 -0.00552523 0)
(0.997412 0.0033759 0)
(1.00266 0.0010653 0)
(0.999164 -0.00116229 0)
(0.99577 -0.00345718 0)
(0.997655 0.000179184 0)
(1.00019 0.00170925 0)
(1.0004 0.000636316 0)
(0.999279 -0.0010964 0)
(0.9975 -0.00188898 0)
(0.996116 -0.000737182 0)
(0.997046 0.000203989 0)
(0.998371 0.00039635 0)
(0.998531 0.000554003 0)
(0.998232 -0.000543843 0)
(0.99717 -0.00104568 0)
(0.996277 -0.000753738 0)
(0.996219 0.000308346 0)
(0.995628 0.000378071 0)
(0.995058 0.00183249 0)
(0.995959 0.0026413 0)
(0.996796 0.00353355 0)
(0.997968 0.00506814 0)
(1.00157 0.00660722 0)
(0.998972 -0.0084923 0)
(0.994437 0.0105671 0)
(1.0039 -0.0062405 0)
(0.996679 0.000192925 0)
(0.997518 0.00248313 0)
(1.00372 -0.000835951 0)
(0.998085 -0.00518739 0)
(0.997578 0.00314924 0)
(1.00251 0.0011014 0)
(0.999015 -0.0012161 0)
(0.995821 -0.00320194 0)
(0.997849 2.63391e-05 0)
(1.00022 0.00167508 0)
(1.00032 0.000573915 0)
(0.999207 -0.000966572 0)
(0.997548 -0.00178579 0)
(0.996238 -0.000732406 0)
(0.997121 0.000177188 0)
(0.9984 0.000323557 0)
(0.998489 0.000526435 0)
(0.998135 -0.000471228 0)
(0.997161 -0.000937551 0)
(0.996348 -0.000625341 0)
(0.996295 0.000336758 0)
(0.995716 0.000565279 0)
(0.995235 0.00187239 0)
(0.996069 0.00294798 0)
(0.997026 0.00360944 0)
(0.998182 0.00571018 0)
(1.002 0.00636927 0)
(0.999071 -0.00822563 0)
(0.994473 0.0101104 0)
(1.00369 -0.00588465 0)
(0.996894 3.55945e-05 0)
(0.997486 0.00247825 0)
(1.00351 -0.000976991 0)
(0.998205 -0.00484536 0)
(0.997743 0.00291996 0)
(1.00235 0.0011397 0)
(0.998867 -0.00126929 0)
(0.995871 -0.00295448 0)
(0.998039 -0.000112138 0)
(1.00027 0.00162514 0)
(1.00024 0.000536316 0)
(0.999138 -0.000865924 0)
(0.997588 -0.00165909 0)
(0.996362 -0.000744825 0)
(0.997191 0.000162238 0)
(0.998436 0.000255472 0)
(0.998446 0.000493633 0)
(0.998054 -0.000388029 0)
(0.997142 -0.000857735 0)
(0.996434 -0.0004553 0)
(0.996361 0.000382877 0)
(0.995834 0.000730863 0)
(0.995409 0.00204208 0)
(0.996215 0.00306042 0)
(0.99727 0.00406643 0)
(0.998449 0.00564281 0)
(1.00236 0.0079525 0)
(0.999169 -0.00794896 0)
(0.994515 0.00963767 0)
(1.00348 -0.00551507 0)
(0.997111 -0.000133742 0)
(0.997454 0.00248442 0)
(1.00331 -0.00112604 0)
(0.998326 -0.00450129 0)
(0.997908 0.00269368 0)
(1.0022 0.00116869 0)
(0.998719 -0.00131567 0)
(0.995919 -0.00271974 0)
(0.998226 -0.00023233 0)
(1.00032 0.00155621 0)
(1.00016 0.000519424 0)
(0.999074 -0.000786794 0)
(0.99762 -0.00152309 0)
(0.996484 -0.000762477 0)
(0.997258 0.000161971 0)
(0.998474 0.000180894 0)
(0.998409 0.000504979 0)
(0.997975 -0.000392252 0)
(0.997131 -0.000660155 0)
(0.996524 -0.000461074 0)
(0.996431 0.000783891 0)
(0.995972 0.000425465 0)
(0.995578 0.00289563 0)
(0.996413 0.0023123 0)
(0.997469 0.0056237 0)
(0.998944 0.00408864 0)
(1.00259 0.010737 0)
(0.999268 -0.00766251 0)
(0.994566 0.00914992 0)
(1.00326 -0.00513286 0)
(0.997329 -0.000314164 0)
(0.997422 0.00250094 0)
(1.00311 -0.00128098 0)
(0.99845 -0.00415862 0)
(0.998073 0.00247238 0)
(1.00204 0.0011919 0)
(0.998573 -0.00135096 0)
(0.995964 -0.0024968 0)
(0.998412 -0.000337147 0)
(1.00037 0.00147839 0)
(1.00008 0.000509548 0)
(0.999004 -0.000713574 0)
(0.997656 -0.00139161 0)
(0.996593 -0.000778885 0)
(0.997336 0.00016321 0)
(0.998503 0.000104382 0)
(0.998383 0.000482667 0)
(0.997899 -0.000295988 0)
(0.997123 -0.000592748 0)
(0.996639 -0.000299765 0)
(0.996469 0.00061931 0)
(0.996172 0.000983992 0)
(0.995695 0.00239843 0)
(0.996713 0.00346066 0)
(0.997563 0.00452947 0)
(0.999529 0.00603123 0)
(1.00277 0.00665514 0)
(0.999365 -0.00736666 0)
(0.994625 0.00864831 0)
(1.00305 -0.00473999 0)
(0.997548 -0.000503417 0)
(0.99739 0.00252535 0)
(1.00291 -0.00143771 0)
(0.998577 -0.00382277 0)
(0.998234 0.00226085 0)
(1.00189 0.00120758 0)
(0.998427 -0.00137368 0)
(0.996008 -0.00228948 0)
(0.998591 -0.000422964 0)
(1.00042 0.00138861 0)
(1.00001 0.00050735 0)
(0.998937 -0.000639922 0)
(0.997685 -0.00128546 0)
(0.996698 -0.000743704 0)
(0.997413 8.61035e-05 0)
(0.998525 0.000155296 0)
(0.998384 0.000323166 0)
(0.997803 -1.32099e-05 0)
(0.997147 -0.000742696 0)
(0.996673 0.000134519 0)
(0.996648 0.000217753 0)
(0.996228 0.00176184 0)
(0.99604 0.00170462 0)
(0.996764 0.0047075 0)
(0.998005 0.00346958 0)
(0.999335 0.00791139 0)
(1.00312 0.00432904 0)
(0.999461 -0.00706193 0)
(0.994693 0.00813433 0)
(1.00283 -0.00433855 0)
(0.997768 -0.000698938 0)
(0.997358 0.00255472 0)
(1.00271 -0.0015921 0)
(0.998707 -0.00349901 0)
(0.998393 0.00206571 0)
(1.00173 0.00119897 0)
(0.998282 -0.00137104 0)
(0.996052 -0.00211878 0)
(0.998763 -0.00046531 0)
(1.00049 0.00125269 0)
(0.999934 0.000562668 0)
(0.998876 -0.000633427 0)
(0.997704 -0.0011024 0)
(0.996806 -0.00080741 0)
(0.997482 0.000153326 0)
(0.998561 7.44888e-06 0)
(0.998368 0.000478919 0)
(0.997742 -0.00020414 0)
(0.99714 -0.000257642 0)
(0.99678 -0.000222188 0)
(0.996731 0.00125809 0)
(0.996414 0.000578845 0)
(0.99625 0.00369409 0)
(0.997026 0.00252089 0)
(0.998256 0.00676047 0)
(0.999657 0.00451224 0)
(1.00325 0.0112708 0)
(0.999555 -0.00674883 0)
(0.994772 0.00760937 0)
(1.0026 -0.00393052 0)
(0.997988 -0.000899033 0)
(0.997326 0.00258709 0)
(1.00251 -0.00173968 0)
(0.998841 -0.00319107 0)
(0.998548 0.0018833 0)
(1.00158 0.00118249 0)
(0.998136 -0.00136365 0)
(0.996096 -0.00193748 0)
(0.998927 -0.000543424 0)
(1.00056 0.00118378 0)
(0.999859 0.000522128 0)
(0.998819 -0.000497429 0)
(0.997715 -0.00108645 0)
(0.996912 -0.00069189 0)
(0.997541 3.77832e-05 0)
(0.998607 9.39633e-05 0)
(0.99835 0.000351262 0)
(0.997703 -2.08898e-05 0)
(0.997122 -0.00028564 0)
(0.996936 0.0001064 0)
(0.996746 0.00092948 0)
(0.996703 0.00138422 0)
(0.996372 0.00283364 0)
(0.997435 0.00412639 0)
(0.998382 0.00549417 0)
(1.00045 0.00672221 0)
(1.00331 0.00734624 0)
(0.999646 -0.00642828 0)
(0.994863 0.00707604 0)
(1.00238 -0.00351989 0)
(0.998208 -0.00109847 0)
(0.997296 0.00261691 0)
(1.00231 -0.00187257 0)
(0.998979 -0.00290873 0)
(0.9987 0.00173041 0)
(1.00143 0.00113558 0)
(0.997993 -0.00130729 0)
(0.996132 -0.00182958 0)
(0.999092 -0.000518138 0)
(1.00063 0.000981941 0)
(0.999801 0.000650774 0)
(0.998744 -0.000566093 0)
(0.997741 -0.000852965 0)
(0.996991 -0.000788727 0)
(0.997631 0.00012153 0)
(0.998618 -5.17283e-08 0)
(0.998373 0.000326219 0)
(0.997622 0.000118771 0)
(0.997173 -0.000372568 0)
(0.996961 0.000535558 0)
(0.996975 0.000331588 0)
(0.996748 0.00237624 0)
(0.996836 0.0015658 0)
(0.997573 0.00586941 0)
(0.998864 0.00407649 0)
(1.00005 0.00984997 0)
(1.00332 0.00344905 0)
(0.999735 -0.00610123 0)
(0.994966 0.00653654 0)
(1.00216 -0.00310893 0)
(0.998427 -0.00129544 0)
(0.997268 0.00264297 0)
(1.00211 -0.00198763 0)
(0.999124 -0.00265374 0)
(0.998845 0.0015957 0)
(1.00128 0.00108011 0)
(0.997845 -0.00126312 0)
(0.996177 -0.00167507 0)
(0.999235 -0.000594418 0)
(1.00072 0.000954063 0)
(0.999722 0.000552143 0)
(0.998696 -0.000340913 0)
(0.997731 -0.000952299 0)
(0.997099 -0.000559061 0)
(0.997674 -8.33107e-05 0)
(0.998674 0.000158146 0)
(0.998361 0.000233765 0)
(0.997596 0.000197048 0)
(0.997174 -2.15177e-05 0)
(0.997065 0.000132442 0)
(0.997082 0.00150532 0)
(0.996942 0.000989622 0)
(0.997134 0.00354228 0)
(0.99799 0.00318906 0)
(0.999372 0.00725942 0)
(1.0002 0.0081304 0)
(1.00281 0.0130645 0)
(0.99982 -0.00576864 0)
(0.995081 0.00599356 0)
(1.00193 -0.00270127 0)
(0.998645 -0.00148588 0)
(0.997243 0.00265958 0)
(1.00191 -0.00207549 0)
(0.999272 -0.00243961 0)
(0.998988 0.0014908 0)
(1.00113 0.000992443 0)
(0.997708 -0.00116664 0)
(0.996203 -0.00159652 0)
(0.999393 -0.000562134 0)
(1.00079 0.000760349 0)
(0.99968 0.000671125 0)
(0.998613 -0.000427109 0)
(0.997745 -0.00068592 0)
(0.997181 -0.000732492 0)
(0.997741 0.000123638 0)
(0.998721 -0.00011139 0)
(0.998351 0.000546574 0)
(0.997609 -5.19617e-05 0)
(0.997108 0.000455187 0)
(0.997295 -0.000131851 0)
(0.997077 0.0019354 0)
(0.997234 0.000790838 0)
(0.997262 0.0038775 0)
(0.998541 0.00242022 0)
(1.00008 0.00679316 0)
(1.00168 0.00677755 0)
(1.00201 0.0132075 0)
(0.999902 -0.00543196 0)
(0.995207 0.00545024 0)
(1.00171 -0.0023013 0)
(0.998859 -0.0016639 0)
(0.997221 0.00266157 0)
(1.0017 -0.00213216 0)
(0.999428 -0.00226593 0)
(0.999124 0.00141268 0)
(1.00099 0.000895909 0)
(0.997567 -0.0010741 0)
(0.996236 -0.00149218 0)
(0.999528 -0.000595515 0)
(1.00089 0.000696971 0)
(0.999624 0.000613432 0)
(0.99855 -0.000253561 0)
(0.997745 -0.000755947 0)
(0.997258 -0.000513564 0)
(0.997796 -0.00010219 0)
(0.998769 0.000245278 0)
(0.998371 4.09178e-05 0)
(0.997577 0.000696521 0)
(0.997141 -0.0003493 0)
(0.997362 0.00125948 0)
(0.997246 0.000264074 0)
(0.997389 0.00298021 0)
(0.997472 0.0015675 0)
(0.998758 0.00459776 0)
(1.00049 0.00218959 0)
(1.00209 0.00372615 0)
(1.00223 -0.00022459 0)
(0.999983 -0.00509247 0)
(0.995342 0.00490963 0)
(1.00149 -0.00191231 0)
(0.999069 -0.00182805 0)
(0.997201 0.00264678 0)
(1.0015 -0.0021548 0)
(0.999588 -0.00213117 0)
(0.999257 0.00135555 0)
(1.00084 0.0007958 0)
(0.997447 -0.000985618 0)
(0.996238 -0.00138078 0)
(0.999692 -0.000634895 0)
(1.00094 0.000630935 0)
(0.999619 0.000598796 0)
(0.99844 -0.000180858 0)
(0.997776 -0.000668439 0)
(0.997303 -0.000504749 0)
(0.997906 -6.73918e-05 0)
(0.998748 0.000157759 0)
(0.998452 0.000161521 0)
(0.997509 0.00060277 0)
(0.997233 -9.71737e-06 0)
(0.997385 0.00106658 0)
(0.997484 0.000640787 0)
(0.997489 0.00276508 0)
(0.997687 0.00175183 0)
(0.998625 0.00429734 0)
(0.999802 0.0016418 0)
(1.00081 0.00180173 0)
(1.00356 -0.000904361 0)
(1.00006 -0.00475179 0)
(0.995486 0.00437604 0)
(1.00128 -0.00154023 0)
(0.999273 -0.00197168 0)
(0.997187 0.00260842 0)
(1.00129 -0.00213748 0)
(0.999759 -0.00204579 0)
(0.999377 0.00133354 0)
(1.00071 0.000667239 0)
(0.997303 -0.000860525 0)
(0.996279 -0.00132413 0)
(0.999782 -0.000601728 0)
(1.00108 0.000466356 0)
(0.999526 0.000684432 0)
(0.998428 -0.000220939 0)
(0.997721 -0.000488821 0)
(0.997399 -0.000562555 0)
(0.997932 3.92973e-05 0)
(0.998818 5.83289e-05 0)
(0.998468 0.000342737 0)
(0.997523 0.000358179 0)
(0.997241 0.000483316 0)
(0.997472 0.000567526 0)
(0.997655 0.00132835 0)
(0.997611 0.00184419 0)
(0.997891 0.00239473 0)
(0.99864 0.00333502 0)
(0.999747 0.00375617 0)
(1.00129 0.00478387 0)
(1.00542 0.00580564 0)
(1.00014 -0.00441156 0)
(0.995642 0.00385248 0)
(1.00107 -0.00118837 0)
(0.999469 -0.00209123 0)
(0.99718 0.00254724 0)
(1.00108 -0.00208736 0)
(0.999934 -0.00199188 0)
(0.999498 0.00130968 0)
(1.00057 0.000579209 0)
(0.997187 -0.000814027 0)
(0.996277 -0.00113832 0)
(0.999917 -0.000750315 0)
(1.00116 0.000539478 0)
(0.999522 0.000522077 0)
(0.998325 1.772e-05 0)
(0.997737 -0.000603094 0)
(0.99744 -0.000338527 0)
(0.998031 -0.000101468 0)
(0.998818 0.000156977 0)
(0.998514 0.000425733 0)
(0.997527 0.000172624 0)
(0.997269 0.00105832 0)
(0.997565 2.1164e-05 0)
(0.997781 0.00221478 0)
(0.997741 0.000864545 0)
(0.998083 0.00331705 0)
(0.998999 0.00212989 0)
(1.00025 0.00571588 0)
(1.00145 0.00688894 0)
(1.00427 0.0115461 0)
(1.0002 -0.00407374 0)
(0.995812 0.00334359 0)
(1.00086 -0.000861332 0)
(0.999658 -0.00218341 0)
(0.997183 0.00245771 0)
(1.00086 -0.0019961 0)
(1.00011 -0.00198227 0)
(0.99962 0.00131972 0)
(1.00043 0.000455916 0)
(0.99707 -0.000694533 0)
(0.996281 -0.00108857 0)
(1.00002 -0.000672324 0)
(1.00128 0.000295869 0)
(0.999476 0.00074468 0)
(0.998275 -0.000181318 0)
(0.997703 -0.000288405 0)
(0.997511 -0.000509612 0)
(0.998047 6.15478e-05 0)
(0.99893 5.73079e-05 0)
(0.99847 0.000462896 0)
(0.99766 0.00042279 0)
(0.997178 0.000773902 0)
(0.997757 0.000686185 0)
(0.997828 0.00155158 0)
(0.997916 0.00165233 0)
(0.998206 0.00267002 0)
(0.999404 0.00263388 0)
(1.00129 0.0034694 0)
(1.00332 0.00337801 0)
(1.00411 0.00459979 0)
(1.00027 -0.00374051 0)
(0.995991 0.00285374 0)
(1.00067 -0.000562824 0)
(0.999837 -0.00224636 0)
(0.997195 0.0023414 0)
(1.00064 -0.00187499 0)
(1.00029 -0.00199035 0)
(0.999743 0.00130781 0)
(1.00028 0.000399115 0)
(0.996972 -0.000693586 0)
(0.996262 -0.000860544 0)
(1.00013 -0.000846612 0)
(1.00137 0.00039486 0)
(0.999488 0.000534819 0)
(0.998162 0.00013739 0)
(0.99773 -0.000566458 0)
(0.997515 -4.5568e-05 0)
(0.998177 -0.000369078 0)
(0.99889 0.000664903 0)
(0.998612 -0.000212962 0)
(0.99757 0.00136488 0)
(0.997333 -0.000270901 0)
(0.997734 0.00207251 0)
(0.998033 0.000145552 0)
(0.99803 0.00318271 0)
(0.998363 0.00129988 0)
(0.999206 0.00380002 0)
(1.00043 0.000775999 0)
(1.00176 0.00110708 0)
(1.0051 -0.00157013 0)
(1.00033 -0.00341394 0)
(0.996177 0.00238746 0)
(1.00048 -0.000297649 0)
(1 -0.002276 0)
(0.997217 0.00219457 0)
(1.00041 -0.00171876 0)
(1.00048 -0.00203054 0)
(0.99987 0.00131282 0)
(1.00014 0.000318919 0)
(0.996885 -0.000623206 0)
(0.996242 -0.000778527 0)
(1.00022 -0.000766302 0)
(1.00151 0.000134101 0)
(0.999455 0.00079449 0)
(0.998106 -9.71151e-05 0)
(0.997704 -0.000169337 0)
(0.997565 -0.000389442 0)
(0.998218 0.000150506 0)
(0.998956 -1.64775e-05 0)
(0.998645 0.000639874 0)
(0.997611 0.000409029 0)
(0.997372 0.000931432 0)
(0.997815 0.000777666 0)
(0.998165 0.00160927 0)
(0.998198 0.00170466 0)
(0.998412 0.00263796 0)
(0.999133 0.00254252 0)
(1.00033 0.00308826 0)
(1.00245 0.00336598 0)
(1.00735 0.00577075 0)
(1.00038 -0.00309604 0)
(0.996368 0.00194854 0)
(1.00031 -6.81863e-05 0)
(1.00016 -0.00227313 0)
(0.997252 0.0020239 0)
(1.00018 -0.00154354 0)
(1.00066 -0.0020677 0)
(0.999997 0.00127843 0)
(0.999997 0.000314458 0)
(0.996793 -0.000661059 0)
(0.996234 -0.000556617 0)
(1.00027 -0.000878039 0)
(1.00165 0.000152162 0)
(0.99945 0.000668553 0)
(0.998021 0.000178564 0)
(0.997693 -0.000431511 0)
(0.997604 -6.45717e-06 0)
(0.998262 -0.000114235 0)
(0.999012 0.000282204 0)
(0.998698 0.000456314 0)
(0.997644 0.000669273 0)
(0.997398 0.000828794 0)
(0.997925 0.000898025 0)
(0.998268 0.00153367 0)
(0.99835 0.00182995 0)
(0.998595 0.00241992 0)
(0.99936 0.00321359 0)
(1.00071 0.00437668 0)
(1.00285 0.00615309 0)
(1.00745 0.00614506 0)
(1.00043 -0.00278899 0)
(0.996565 0.00154058 0)
(1.00015 0.000124573 0)
(1.00029 -0.00223688 0)
(0.997298 0.00182963 0)
(0.999952 -0.00134843 0)
(1.00084 -0.00211166 0)
(1.00014 0.00123801 0)
(0.999837 0.000301677 0)
(0.996735 -0.00064092 0)
(0.996197 -0.000468391 0)
(1.00033 -0.000777062 0)
(1.00179 -8.91787e-05 0)
(0.999464 0.000882218 0)
(0.997922 2.96589e-05 0)
(0.997688 -0.000107321 0)
(0.997649 -0.000276401 0)
(0.998291 0.000373845 0)
(0.999095 -0.00021042 0)
(0.998732 0.000982639 0)
(0.997703 0.000236583 0)
(0.997412 0.00145315 0)
(0.998011 0.000293942 0)
(0.998429 0.00212077 0)
(0.998471 0.00125797 0)
(0.998879 0.00320154 0)
(0.999853 0.00272623 0)
(1.00149 0.00551639 0)
(1.00313 0.00674456 0)
(1.00637 0.0098385 0)
(1.00047 -0.0024948 0)
(0.996772 0.00116747 0)
(1 0.000275818 0)
(1.00042 -0.00216825 0)
(0.997361 0.00161577 0)
(0.999715 -0.00114554 0)
(1.00101 -0.00214148 0)
(1.00029 0.00115606 0)
(0.999693 0.000345001 0)
(0.996656 -0.000681137 0)
(0.996191 -0.000308886 0)
(1.00034 -0.000797389 0)
(1.00196 -0.000135538 0)
(0.999487 0.000733122 0)
(0.997834 0.000336544 0)
(0.997653 -0.000447699 0)
(0.997721 0.000168331 0)
(0.998287 -0.000113201 0)
(0.999162 0.000468626 0)
(0.998814 4.75818e-05 0)
(0.997761 0.00130055 0)
(0.99739 0.000384513 0)
(0.998119 0.00144737 0)
(0.998553 0.000829439 0)
(0.998714 0.00243807 0)
(0.999107 0.00220642 0)
(1.00026 0.0038808 0)
(1.00238 0.00349858 0)
(1.00473 0.00373925 0)
(1.00613 0.00249246 0)
(1.0005 -0.00221568 0)
(0.996987 0.000831301 0)
(0.999864 0.000389128 0)
(1.00053 -0.00207264 0)
(0.997438 0.00139108 0)
(0.99948 -0.000945022 0)
(1.00117 -0.00214788 0)
(1.00047 0.00103816 0)
(0.999525 0.000410188 0)
(0.996613 -0.000711545 0)
(0.996149 -0.000203424 0)
(1.00036 -0.0006984 0)
(1.00208 -0.000307431 0)
(0.999581 0.000800474 0)
(0.997661 0.000339226 0)
(0.997696 -0.000231774 0)
(0.997707 -9.72556e-05 0)
(0.998405 0.000474785 0)
(0.999102 -5.02335e-05 0)
(0.998995 0.000838377 0)
(0.997747 0.000549586 0)
(0.997473 0.00140011 0)
(0.998094 0.000602705 0)
(0.998793 0.00165964 0)
(0.998913 0.0015395 0)
(0.999458 0.00264463 0)
(1.00031 0.0029899 0)
(1.00137 0.0052173 0)
(1.00247 0.00639957 0)
(1.00611 0.00809523 0)
(1.00053 -0.00195372 0)
(0.997203 0.000534846 0)
(0.999743 0.000463807 0)
(1.00062 -0.00195134 0)
(0.997527 0.0011575 0)
(0.999245 -0.000744397 0)
(1.00131 -0.00214143 0)
(1.00065 0.000910112 0)
(0.999386 0.000456163 0)
(0.996529 -0.000680889 0)
(0.996173 -0.000197497 0)
(1.00031 -0.000514579 0)
(1.00227 -0.000494384 0)
(0.999626 0.000837773 0)
(0.99761 0.000428743 0)
(0.997566 -0.000137157 0)
(0.99791 -0.000127272 0)
(0.998296 0.000621265 0)
(0.999272 -5.14133e-07 0)
(0.998966 0.000842306 0)
(0.997936 0.000516486 0)
(0.997357 0.00163664 0)
(0.998211 0.000496173 0)
(0.998846 0.00182353 0)
(0.999092 0.00126584 0)
(0.999654 0.00248157 0)
(1.00142 0.00174708 0)
(1.00395 0.00267742 0)
(1.00618 0.00278467 0)
(1.00575 0.0049006 0)
(1.00055 -0.00170989 0)