/*--------------------------------*- C++ -*----------------------------------*\
| =========                 |                                                 |
| \\      /  F ield         | OpenFOAM: The Open Source CFD Toolbox           |
|  \\    /   O peration     | Version:  v2006                                 |
|   \\  /    A nd           | Website:  www.openfoam.com                      |
|    \\/     M anipulation  |                                                 |
\*---------------------------------------------------------------------------*/
FoamFile
{
    version     2.0;
    format      ascii;
    class       volScalarField;
    location    "0.6";
    object      p;
}
// * * * * * * * * * * * * * * * * * * * * * * * * * * * * * * * * * * * * * //

dimensions      [0 2 -2 0 0 0 0];


internalField   nonuniform List<scalar> 
26400
(
2.34513e-08
0.00186736
0.00069902
0.00181662
0.000888293
0.00149941
0.00122061
0.0012078
0.00128488
0.00132727
0.00126217
0.00153338
0.00126309
0.00164536
0.00135605
0.0017186
0.001499
0.00180628
0.00171322
0.00203395
0.00204418
0.00250525
0.0026355
0.00324677
0.0036172
0.0044894
0.0052516
0.00676246
0.00848439
0.0111123
4.93048e-07
0.00186781
0.00069898
0.001817
0.000888343
0.00149962
0.00122139
0.00120731
0.00128622
0.00132686
0.00126352
0.00153303
0.00126422
0.00164511
0.00135751
0.00171805
0.0015007
0.00180536
0.00171558
0.0020313
0.00204737
0.00249951
0.00263974
0.00323278
0.00362538
0.00445725
0.00527556
0.00662665
0.00847518
0.0104314
1.80212e-06
0.00186853
0.000699192
0.00181743
0.000888845
0.00149997
0.00122276
0.00120667
0.00128852
0.0013262
0.00126598
0.00153208
0.00126657
0.00164451
0.00136036
0.00171667
0.00150384
0.00180366
0.00171939
0.00202771
0.00205214
0.00249294
0.00264473
0.00322192
0.00363181
0.00443826
0.00527055
0.00654382
0.00836298
0.00977743
4.4009e-06
0.00186966
0.00069961
0.00181805
0.000889701
0.00150057
0.00122454
0.00120623
0.00129139
0.0013257
0.00126902
0.0015309
0.00126953
0.0016438
0.00136375
0.00171478
0.00150735
0.0018014
0.00172369
0.0020232
0.00205775
0.00248458
0.00265025
0.00320671
0.00363794
0.00440689
0.00527298
0.00643074
0.00813951
0.00922731
8.75659e-06
0.00187106
0.00070021
0.00181879
0.00089078
0.00150129
0.00122669
0.00120579
0.00129477
0.00132514
0.00127243
0.00152935
0.00127281
0.00164267
0.00136739
0.00171215
0.00151098
0.00179826
0.00172826
0.00201742
0.00206378
0.00247427
0.002655
0.00319058
0.00364132
0.00437684
0.00524271
0.00634133
0.00779099
0.00877918
1.50615e-05
0.0018724
0.000700941
0.00181938
0.000891975
0.00150189
0.0012291
0.00120506
0.00129855
0.00132416
0.00127607
0.00152721
0.00127635
0.00164082
0.00137128
0.00170863
0.00151485
0.00179404
0.0017331
0.0020107
0.00206999
0.00246483
0.00265893
0.00317591
0.00363941
0.00437297
0.00517682
0.00626623
0.00741356
0.00823107
2.31993e-05
0.00187337
0.000701725
0.0018196
0.000893219
0.00150218
0.0012317
0.00120389
0.00130268
0.00132259
0.00127996
0.00152444
0.00128026
0.00163815
0.00137556
0.00170419
0.00151921
0.00178861
0.00173853
0.00200241
0.00207683
0.0024521
0.00266329
0.0031583
0.0036376
0.00432721
0.00515262
0.00609862
0.00725408
0.00782285
3.28944e-05
0.00187386
0.000702505
0.00181939
0.000894515
0.00150209
0.00123449
0.00120221
0.00130722
0.00132045
0.00128419
0.0015211
0.00128466
0.00163474
0.00138041
0.00169887
0.00152424
0.00178209
0.00174456
0.00199284
0.00208392
0.00243836
0.00266655
0.00314025
0.00363355
0.00428843
0.00510162
0.00593681
0.00693409
0.00738157
4.38769e-05
0.00187386
0.000703264
0.00181876
0.000895926
0.00150164
0.00123755
0.00120005
0.00131226
0.00131775
0.00128892
0.0015172
0.0012897
0.00163059
0.00138594
0.00169268
0.00152993
0.00177466
0.00175105
0.00198263
0.00209057
0.00242504
0.00266715
0.00312452
0.00361492
0.00429156
0.00498102
0.0058397
0.00629759
0.00689309
5.59747e-05
0.00187343
0.000704017
0.00181777
0.000897543
0.00150089
0.00124093
0.00119741
0.00131789
0.00131449
0.0012943
0.00151265
0.00129552
0.0016256
0.00139231
0.00168549
0.00153637
0.0017656
0.00175825
0.00197104
0.00209762
0.00240936
0.00266832
0.00310389
0.00360689
0.00424732
0.00491068
0.00571181
0.00598188
0.00634922
6.91309e-05
0.00187261
0.000704791
0.00181647
0.000899453
0.00149983
0.0012447
0.00119426
0.00132415
0.00131062
0.00130041
0.0015074
0.00130219
0.00161972
0.00139953
0.00167732
0.00154348
0.00175594
0.00176554
0.00195876
0.00210404
0.00239317
0.00266796
0.00308009
0.00359516
0.00417492
0.00488356
0.00554852
0.00606697
0.00573205
8.33826e-05
0.0018714
0.000705612
0.00181486
0.000901739
0.00149844
0.00124888
0.00119054
0.00133109
0.00130603
0.00130736
0.00150136
0.00130973
0.00161295
0.0014076
0.00166812
0.0015513
0.00174536
0.00177274
0.00194615
0.00210886
0.0023775
0.00266426
0.00305632
0.00357489
0.0041203
0.00481906
0.00537804
0.00591069
0.00499747
9.8828e-05
0.00186974
0.0007065
0.00181293
0.000904477
0.00149666
0.00125351
0.00118617
0.00133877
0.00130064
0.00131514
0.00149451
0.00131815
0.00160528
0.00141643
0.00165807
0.00155957
0.00173415
0.0017793
0.00193388
0.00211151
0.00236239
0.00265556
0.00303542
0.00354295
0.00407709
0.00471108
0.00519933
0.00545302
0.00458062
0.000115603
0.00186753
0.000707471
0.00181064
0.000907751
0.00149445
0.00125863
0.00118105
0.0013472
0.00129443
0.00132379
0.00148683
0.00132743
0.00159678
0.00142581
0.00164759
0.0015677
0.00172326
0.00178419
0.00192282
0.00211113
0.00234822
0.00264093
0.00301624
0.00349924
0.00402826
0.00459115
0.00501451
0.004769
0.00399549
0.000133865
0.00186461
0.00070854
0.00180793
0.00091166
0.00149171
0.0012643
0.00117512
0.0013564
0.0012873
0.00133337
0.00147828
0.00133751
0.00158759
0.00143547
0.0016367
0.00157584
0.00171243
0.00178789
0.00191217
0.00210887
0.00233286
0.00262736
0.00298331
0.00346533
0.00393987
0.00447862
0.00484904
0.00484835
0.00359386
0.000153785
0.00186081
0.000709721
0.00180473
0.000916322
0.00148839
0.00127055
0.00116832
0.00136641
0.00127915
0.00134386
0.00146895
0.00134823
0.00157798
0.00144511
0.00162248
0.00158326
0.00170235
0.00178955
0.00190294
0.00210351
0.00231747
0.00261083
0.00294167
0.00342571
0.00383989
0.00435122
0.00464058
0.00468097
0.00286292
0.000175537
0.00185588
0.000711017
0.00180098
0.00092183
0.00148446
0.00127741
0.0011606
0.00137723
0.00127012
0.00135499
0.00145911
0.00135921
0.0015684
0.00145422
0.00161316
0.00158809
0.00169458
0.00178672
0.0018972
0.00209164
0.00230597
0.00258096
0.00291994
0.00335368
0.0037592
0.00417599
0.00437819
0.00416343
0.00261398
0.000199311
0.00184954
0.000712431
0.00179663
0.000928302
0.00147986
0.00128495
0.00115193
0.00138876
0.0012603
0.00136678
0.00144885
0.00137022
0.00155927
0.00146219
0.00160552
0.00159041
0.00168864
0.00178122
0.00189245
0.00207695
0.00229351
0.00254688
0.00288649
0.00327364
0.00366914
0.00399385
0.00407434
0.00330364
0.00210954
0.000225308
0.00184146
0.000713958
0.00179162
0.000935873
0.00147458
0.00129317
0.00114238
0.00140092
0.00124967
0.00137908
0.00143852
0.00138079
0.00155107
0.0014689
0.00159842
0.00159141
0.00168227
0.00177645
0.001884
0.00206549
0.0022701
0.00252285
0.00282162
0.00320468
0.00352872
0.0038299
0.00392105
0.00355291
0.00176477
0.000253683
0.00183136
0.000715533
0.00178598
0.000944593
0.00146874
0.00130194
0.00113216
0.00141353
0.00123867
0.00139124
0.00142905
0.00139024
0.00154498
0.00147396
0.00159338
0.00159061
0.00167713
0.00177001
0.00187491
0.00205268
0.00224313
0.00249722
0.00274809
0.00312319
0.00337371
0.00364296
0.00368556
0.00342488
0.000937489
0.000284867
0.00181873
0.000717203
0.00177954
0.000954714
0.00146215
0.0013115
0.00112101
0.00142653
0.00122724
0.0014034
0.00141923
0.00139902
0.00153646
0.00147719
0.0015895
0.0015877
0.00167504
0.00175865
0.00187029
0.00202923
0.00222474
0.00244898
0.00269502
0.003015
0.00323409
0.00338532
0.00332298
0.0028585
0.00102452
0.000318846
0.00180332
0.000718764
0.00177252
0.000966016
0.00145541
0.00132125
0.00111007
0.00143887
0.00121702
0.001414
0.00141314
0.00140434
0.00153958
0.00147312
0.00159294
0.00157245
0.00167903
0.0017379
0.00187249
0.00199543
0.00220991
0.00237629
0.00263994
0.00288839
0.00310016
0.00311317
0.00287021
0.00178915
0.000672099
0.000356279
0.00178456
0.000720219
0.00176482
0.000978712
0.00144821
0.00133141
0.00109864
0.00145109
0.0012068
0.0014242
0.00140652
0.00141016
0.00153489
0.0014788
0.00158539
0.00157907
0.0016638
0.00174231
0.00184407
0.00199288
0.00215109
0.00234967
0.00252424
0.00277721
0.00287297
0.00290444
0.00276287
0.00239529
0.000407453
0.000397379
0.0017621
0.000721358
0.00175651
0.00099287
0.0014407
0.00134178
0.00108711
0.00146232
0.0011974
0.0014327
0.00139944
0.00141384
0.00152309
0.00148121
0.00158094
0.0015786
0.00165599
0.00173504
0.00182378
0.00196837
0.00211455
0.00230185
0.00243414
0.00264455
0.00268486
0.00263689
0.00242046
0.00203809
0.000143901
0.000442258
0.00173574
0.000721752
0.00174797
0.00100813
0.00143433
0.00135117
0.00107808
0.00146956
0.0011943
0.00143554
0.00140451
0.00141109
0.00154382
0.00146546
0.0015916
0.0015483
0.0016684
0.00169665
0.00184079
0.00189855
0.00209543
0.0021857
0.00236804
0.00248177
0.00255165
0.0023119
0.00181569
0.000574124
-0.00013736
0.000491445
0.00170502
0.000721351
0.00173896
0.00102442
0.00142859
0.00136042
0.00106876
0.00147715
0.00118873
0.00144108
0.00139826
0.00141892
0.00153033
0.00148071
0.00157678
0.00157123
0.00164054
0.00172017
0.00178936
0.00190845
0.00200948
0.00215201
0.00222254
0.0023374
0.00228941
0.00213865
0.00188174
0.00148793
-0.00039243
0.000545721
0.00166895
0.000719997
0.00172923
0.00104177
0.00142269
0.0013693
0.00105995
0.00148279
0.00118396
0.00144345
0.00139208
0.00141911
0.00152356
0.00148067
0.00156684
0.00156725
0.00161866
0.00171079
0.00174654
0.00188819
0.00193677
0.00210133
0.00209083
0.00218471
0.0020295
0.00181952
0.00150776
0.00123666
-0.000573904
0.000604388
0.00163022
0.000715649
0.00172235
0.00105795
0.00142804
0.0013756
0.00105695
0.0014813
0.00119346
0.00143471
0.00141619
0.0014024
0.00155695
0.00144818
0.00160795
0.00151475
0.00165895
0.00164265
0.00177345
0.00179225
0.00192372
0.00196967
0.0020224
0.00199898
0.00182942
0.00133355
0.000572614
-0.000420251
-5.80351e-05
0.00066839
0.00158664
0.000709168
0.00171127
0.00107678
0.00142362
0.00138182
0.00104966
0.00148752
0.00118567
0.00143899
0.00141075
0.00141069
0.00154539
0.00145368
0.00159356
0.00151489
0.00163936
0.0016296
0.00173835
0.00175532
0.00186112
0.00188444
0.00191375
0.00186059
0.00166539
0.00110318
0.000236659
-0.000841669
-0.000405764
0.000738195
0.00153858
0.000701028
0.00170383
0.00109525
0.00142642
0.00138798
0.00104179
0.00149456
0.0011768
0.00145054
0.00140187
0.00143122
0.0015307
0.00147419
0.00156464
0.00153091
0.00160229
0.00163522
0.0016799
0.0017306
0.0017667
0.00180242
0.00175752
0.00173098
0.00154454
0.0012413
0.000775493
0.000181541
-0.00196671
0.00081119
0.00148999
0.000677627
0.00170137
0.00109839
0.00143833
0.00139259
0.00103864
0.00149836
0.00117248
0.00145674
0.00140129
0.00143871
0.00152332
0.00148266
0.00154964
0.0015318
0.00158028
0.00161991
0.0016311
0.00168112
0.00167953
0.00169682
0.00163538
0.00159123
0.00144821
0.00121424
0.000682646
-0.000417028
-0.0041672
0.000893358
0.00143751
0.00067217
0.00168117
0.00113387
0.00143455
0.00139513
0.0010313
0.00149776
0.00116457
0.00145091
0.0013932
0.00143468
0.00152267
0.00147193
0.00155619
0.00150912
0.00158582
0.00158476
0.00160136
0.0016147
0.00160542
0.00159879
0.00152101
0.00143575
0.00119906
0.00079136
0.000206677
-0.000588749
-0.00320159
0.000971011
0.00139342
0.000621517
0.00169175
0.00111939
0.00147985
0.00139313
0.00105886
0.00148355
0.00119749
0.0014321
0.00142837
0.00141143
0.00154989
0.00143747
0.00157593
0.00146813
0.00158033
0.00152883
0.00155602
0.00152671
0.00151842
0.00148788
0.0014158
0.00127271
0.00101178
0.000268792
-0.000962403
-0.00261621
-0.00334551
0.00106355
0.00134357
0.000607047
0.00166073
0.00116671
0.00145129
0.00140678
0.00102861
0.00149315
0.00116303
0.00145604
0.00140812
0.00145147
0.00152553
0.0014659
0.00154604
0.00148604
0.00154179
0.00151068
0.00149128
0.00145837
0.00140564
0.00135627
0.00124224
0.00111379
0.000868412
0.000502781
-1.42935e-05
-0.000950331
-0.00419741
0.00114366
0.00131025
0.000547739
0.00166587
0.00117092
0.00149617
0.0014133
0.00104451
0.0014945
0.00117148
0.00146171
0.0014036
0.00144859
0.00151434
0.0014592
0.00153855
0.00146487
0.00151736
0.00147165
0.00143492
0.00137708
0.00128837
0.00120834
0.00106853
0.000960663
0.000776832
0.000480383
-0.000272511
-0.00195675
-0.00633019
0.00123064
0.0012755
0.000498612
0.0016539
0.0011906
0.00149925
0.00142807
0.00104271
0.00149545
0.00116412
0.00146433
0.00139837
0.00145138
0.00151155
0.00145932
0.00153672
0.00145136
0.00149477
0.00143235
0.00136881
0.00128332
0.00116976
0.00105842
0.000881791
0.000735902
0.000519985
0.00018984
-0.000584952
-0.00230915
-0.00673034
0.00133506
0.00125372
0.000444486
0.00161616
0.0011932
0.00151721
0.00143672
0.00105298
0.00148992
0.00115906
0.00146429
0.00137869
0.00145167
0.00151145
0.00145281
0.00152791
0.00143197
0.00145683
0.00138376
0.00129883
0.00118692
0.00105044
0.000913225
0.000685038
0.000437103
6.32744e-05
-0.00040777
-0.00100457
-0.00190806
-0.0051529
0.00136889
0.00126127
0.000378876
0.00164431
0.0011695
0.00156498
0.00143137
0.00109266
0.0014679
0.00118543
0.00145793
0.00138846
0.0014406
0.00152005
0.00143269
0.0015178
0.00140478
0.00141266
0.0013305
0.00122492
0.00108347
0.000923915
0.000740805
0.000523415
0.000210348
-0.000332558
-0.0014247
-0.00295293
-0.00483417
-0.00454317
0.00152191
0.00121485
0.000341484
0.00155254
0.00118106
0.00155104
0.00146111
0.00108177
0.00148019
0.00114901
0.00148122
0.0013689
0.00146027
0.00151649
0.00142748
0.00150332
0.00138554
0.00137249
0.00127232
0.00114758
0.000977364
0.000766637
0.000531259
0.000253172
4.00547e-06
-0.000285321
-0.000617684
-0.00103052
-0.00154038
-0.00443945
0.00152095
0.0012588
0.000281653
0.00160324
0.00115056
0.00161506
0.00145914
0.00112049
0.00147934
0.00116883
0.00147142
0.00136491
0.0014448
0.00151317
0.00141329
0.00147814
0.0013542
0.00131419
0.00120041
0.00107444
0.000881849
0.000689536
0.000484243
0.000235378
-0.000174319
-0.000925927
-0.00218241
-0.00384334
-0.00576376
-0.00514416
0.00166133
0.00120467
0.00025793
0.00151752
0.00115174
0.00160925
0.00149312
0.00110133
0.00151073
0.00114194
0.00149278
0.00134732
0.00144635
0.0015083
0.00140247
0.00145694
0.00131836
0.00126348
0.00112114
0.000990881
0.000797221
0.000585342
0.000367311
7.41533e-05
-0.000242477
-0.000587966
-0.000920745
-0.00140289
-0.00263942
-0.00667997
0.00173018
0.00121631
0.000232199
0.0014767
0.00116279
0.00162125
0.00151494
0.00111866
0.00152851
0.00113278
0.00148803
0.00134033
0.00143978
0.00149902
0.00137748
0.00142515
0.00127871
0.00121656
0.00105243
0.000907742
0.00071084
0.000481439
0.000269403
3.08089e-06
-0.00026083
-0.000652209
-0.00125717
-0.00242853
-0.00467236
-0.0096949
0.00172058
0.00124963
0.000204866
0.00146563
0.00114854
0.00163388
0.00152473
0.00113923
0.00154134
0.00113686
0.00148982
0.00133135
0.00141988
0.00148644
0.00136478
0.00139128
0.00123274
0.00116114
0.000978975
0.000828089
0.00062233
0.000380479
0.000144153
-0.000143283
-0.000450322
-0.000900399
-0.00159482
-0.00284412
-0.00518838
-0.0102117
0.00192973
0.00120045
0.000165816
0.00141221
0.00112016
0.00162445
0.00154269
0.00113976
0.0015556
0.00112876
0.00150249
0.00132354
0.00140035
0.00146539
0.00133443
0.00135646
0.0011904
0.00111619
0.000924213
0.000757276
0.000543738
0.000281897
-1.93583e-06
-0.000380591
-0.000820077
-0.0013584
-0.00192764
-0.0027361
-0.00429505
-0.00893873
0.00178687
0.00134143
0.000125054
0.00145453
0.0010567
0.00166524
0.00152931
0.00118803
0.00155217
0.00116568
0.00148296
0.00133129
0.00136692
0.00143762
0.00130322
0.00129873
0.00113387
0.00106014
0.000874296
0.000702738
0.000458363
0.000212939
-0.000108282
-0.000513046
-0.00122689
-0.00234625
-0.00387608
-0.00576035
-0.00783675
-0.00690298
0.0020401
0.0012514
0.000107754
0.00138551
0.00104936
0.0016276
0.00157458
0.00116817
0.00161576
0.00114588
0.0015042
0.00130478
0.00134385
0.00140658
0.00126954
0.00125927
0.00106311
0.000988264
0.000787513
0.000615439
0.000379993
0.000114829
-0.000186593
-0.000556495
-0.000952091
-0.00142948
-0.00201473
-0.0029934
-0.00507797
-0.010327
0.00198128
0.00127951
0.000109867
0.00137617
0.00104738
0.00160949
0.00159488
0.0011817
0.00163044
0.00113602
0.00149373
0.00130543
0.00132492
0.00137038
0.00122422
0.00120622
0.000988943
0.000912629
0.000714745
0.00053806
0.000312264
5.71609e-05
-0.00020048
-0.000535315
-0.000931965
-0.00161001
-0.0026802
-0.00450826
-0.00757825
-0.0134443
0.00204324
0.00136875
8.56055e-05
0.00136793
0.0010194
0.00159624
0.00159569
0.00118923
0.00165327
0.00113236
0.00149314
0.00129925
0.00130378
0.00132402
0.00116608
0.00114085
0.000910186
0.000842581
0.000639147
0.000472857
0.000242563
4.42611e-06
-0.000258937
-0.000596901
-0.00105136
-0.00174873
-0.00282023
-0.00458942
-0.00771158
-0.0137399
0.00212351
0.00133031
5.7122e-05
0.00133313
0.00100127
0.00158206
0.00159487
0.00118962
0.00168012
0.00114099
0.0014864
0.00128271
0.00127542
0.00128145
0.00110071
0.00107018
0.000838961
0.000771786
0.000569012
0.000402356
0.000172015
-7.02723e-05
-0.000338533
-0.000693
-0.0011627
-0.00188743
-0.00300719
-0.00490754
-0.00826686
-0.0146133
0.00212099
0.00138252
8.12248e-05
0.00136868
0.00099107
0.00157047
0.00159013
0.00118295
0.00170338
0.00115123
0.00146728
0.0012575
0.00124201
0.00124348
0.00104158
0.00100509
0.000767792
0.00069755
0.000491492
0.000325158
9.03212e-05
-0.000158316
-0.000436852
-0.000804644
-0.00129457
-0.00206236
-0.0032683
-0.00530485
-0.00882981
-0.0153304
0.00218586
0.00141506
5.2199e-05
0.00130669
0.000986811
0.00156083
0.00158413
0.00116248
0.00171637
0.00116156
0.00145324
0.0012254
0.00119773
0.00120139
0.000989437
0.000947625
0.00069667
0.00061962
0.000407656
0.000239531
-1.28205e-06
-0.000259373
-0.000549326
-0.000933697
-0.00145182
-0.00227225
-0.00355471
-0.00568504
-0.00930318
-0.0158492
0.0022124
0.00143073
4.68733e-05
0.00133703
0.000986554
0.00154805
0.00158375
0.00114279
0.00171974
0.00117214
0.00144565
0.00119511
0.00114384
0.00114664
0.000939315
0.000898506
0.000632169
0.000541253
0.000318975
0.000145019
-0.000102552
-0.000372411
-0.00067574
-0.00108068
-0.00162868
-0.0024942
-0.00383234
-0.00602432
-0.00968588
-0.0162498
0.00224257
0.00145852
6.19291e-05
0.00132905
0.000975695
0.00153022
0.00158828
0.00111983
0.00169361
0.00116975
0.00144219
0.00117093
0.00108149
0.00107577
0.0008792
0.000853609
0.000574426
0.000465865
0.000227724
4.35581e-05
-0.000213007
-0.000497028
-0.000815787
-0.00124175
-0.00181477
-0.00271414
-0.0040902
-0.00631741
-0.0100067
-0.0165928
0.00227108
0.00148825
6.09124e-05
0.00130574
0.000974956
0.00152579
0.00159437
0.00110215
0.00166091
0.00115174
0.00143789
0.00115766
0.00102764
0.000998384
0.000804222
0.000798658
0.000520406
0.000395424
0.00014116
-5.94255e-05
-0.000329932
-0.000631654
-0.000966751
-0.00141117
-0.0020027
-0.0029255
-0.00432381
-0.00657046
-0.0102719
-0.0168658
0.00229842
0.00151228
6.54562e-05
0.00130226
0.000979717
0.00151529
0.00159416
0.00109066
0.001625
0.00111671
0.00141512
0.00114758
0.000987939
0.000926269
0.000714936
0.000721408
0.000456299
0.000328504
6.25202e-05
-0.000159033
-0.000449622
-0.000773658
-0.00112587
-0.00158622
-0.00218954
-0.00312598
-0.00453684
-0.0067966
-0.0105094
-0.0171166
0.00232272
0.0015341
7.53785e-05
0.00129825
0.000978421
0.00149884
0.00158759
0.00108415
0.00159717
0.00107254
0.00137174
0.001125
0.000962701
0.000872041
0.00062478
0.000622841
0.000372629
0.000257851
-1.00206e-05
-0.000250517
-0.000564828
-0.000916087
-0.00128865
-0.0017642
-0.00237492
-0.00331694
-0.00473394
-0.00700292
-0.0107244
-0.0173416
0.00234447
0.0015563
8.75691e-05
0.00129409
0.000978244
0.00148408
0.00157466
0.00107843
0.00157751
0.00103036
0.00131092
0.00108228
0.000938766
0.000836446
0.000546388
0.000511171
0.000267775
0.000171236
-8.35487e-05
-0.000334906
-0.000669969
-0.00105161
-0.00144948
-0.0019422
-0.002559
-0.00350176
-0.00492013
-0.0071949
-0.010924
-0.0175451
0.00236237
0.00157711
0.000101231
0.00129043
0.000979329
0.00147286
0.0015553
0.0010652
0.00156149
0.000994196
0.00124358
0.0010187
0.000900837
0.000810297
0.000486922
0.000405319
0.000147652
6.26919e-05
-0.000170604
-0.000417489
-0.000764693
-0.0011737
-0.0016011
-0.00211593
-0.00274165
-0.00368311
-0.0050982
-0.00737391
-0.0111114
-0.0177457
0.00237954
0.00159609
0.000114891
0.00128635
0.000978721
0.00146643
0.00153484
0.0010427
0.00154148
0.000967762
0.00118329
0.000940979
0.000841777
0.00077371
0.000443249
0.000319359
2.77967e-05
-6.36783e-05
-0.000279712
-0.000508247
-0.000852989
-0.00128052
-0.0017373
-0.00227939
-0.00291993
-0.00386162
-0.0052702
-0.00754042
-0.0112804
-0.0179246
0.00239699
0.00161247
0.000127867
0.00128193
0.00097448
0.00146283
0.00151878
0.00101275
0.00150881
0.000943051
0.00113726
0.000865018
0.000762937
0.000714082
0.000401561
0.000254712
-7.68186e-05
-0.000197946
-0.000409534
-0.000616912
-0.000943789
-0.00137579
-0.00185621
-0.00242717
-0.00308881
-0.00403556
-0.0054377
-0.00769638
-0.0114257
-0.0180601
0.00241232
0.00162602
0.000140379
0.00128034
0.0009671
0.00145758
0.00150669
0.000982855
0.00146381
0.000910227
0.00110425
0.00080156
0.000674091
0.000630831
0.000346049
0.000204399
-0.000159015
-0.000323199
-0.000551679
-0.000745426
-0.00104733
-0.0014669
-0.00195976
-0.00255659
-0.00324336
-0.00420109
-0.00560008
-0.00784725
-0.0115688
-0.0182055
0.0024257
0.00163733
0.000151898
0.00128121
0.000957695
0.00144815
0.00149598
0.000956197
0.00141428
0.000865625
0.00107189
0.000751256
0.00059007
0.000530112
0.000269422
0.000150782
-0.00022429
-0.000428453
-0.000691315
-0.000886684
-0.00116817
-0.0015642
-0.00205414
-0.00266839
-0.00338028
-0.00435426
-0.00575613
-0.00799549
-0.0117087
-0.0183416
0.00243861
0.00164688
0.000160407
0.00128286
0.000948111
0.00143437
0.00148269
0.000934696
0.00136825
0.000811009
0.00103001
0.000708469
0.000518644
0.000428308
0.000175261
8.16704e-05
-0.000284356
-0.000514068
-0.000815087
-0.00102959
-0.00130233
-0.00167446
-0.00214878
-0.00276743
-0.00349901
-0.0044918
-0.00590221
-0.00813865
-0.0118439
-0.0184701
0.00244981
0.0016546
0.000165951
0.00128444
0.000939682
0.00141766
0.00146474
0.000913792
0.00132859
0.000751923
0.000976649
0.000662836
0.000457978
0.000337354
7.20198e-05
-5.2637e-06
-0.0003526
-0.000587609
-0.000918613
-0.0011615
-0.00144074
-0.00179684
-0.00225086
-0.00286168
-0.00360298
-0.00461258
-0.00603478
-0.00827305
-0.0119737
-0.0185943
0.00245907
0.00166092
0.000169055
0.0012847
0.000931937
0.00139963
0.00144192
0.000891329
0.00129471
0.000695473
0.000914387
0.000608972
0.000403104
0.000259387
-2.84571e-05
-0.000104289
-0.000434365
-0.000660089
-0.00100705
-0.00127639
-0.00157282
-0.00192419
-0.00236144
-0.0029582
-0.00369877
-0.00471881
-0.00615228
-0.00839526
-0.0120944
-0.0187154
0.00246716
0.00166598
0.000169782
0.00128222
0.000923781
0.00138188
0.00141656
0.000865115
0.00126383
0.000644261
0.000848288
0.00054658
0.000346966
0.000190874
-0.000119875
-0.00020664
-0.000527291
-0.000739181
-0.00108823
-0.00137605
-0.00169168
-0.00204833
-0.00247614
-0.00305913
-0.00379231
-0.00481516
-0.00625594
-0.00850345
-0.0122007
-0.0188172
0.00247344
0.00166939
0.00016859
0.00127735
0.00091465
0.00136463
0.00139039
0.000835173
0.0012321
0.000597751
0.000784149
0.000478997
0.000285939
0.00012685
-0.000201804
-0.000304115
-0.000624891
-0.000826072
-0.00116974
-0.00146618
-0.00179698
-0.00216328
-0.00258886
-0.00316213
-0.00388612
-0.00490621
-0.00634942
-0.00860004
-0.0122975
-0.0189144
0.00247757
0.00167134
0.000166181
0.00127076
0.000904035
0.00134732
0.00136429
0.000802587
0.00119744
0.0005541
0.000724546
0.000410369
0.000220274
6.24581e-05
-0.000277166
-0.000393832
-0.000720823
-0.000917142
-0.00125441
-0.00155234
-0.00189242
-0.00226774
-0.00269527
-0.00326331
-0.00397963
-0.004995
-0.00643778
-0.00869026
-0.0123884
-0.0190049
0.00247945
0.00167169
0.000162722
0.00126301
0.000892027
0.00132939
0.00133839
0.0007687
0.00116001
0.000511285
0.000669347
0.000344135
0.000152508
-3.92339e-06
-0.000348923
-0.000476507
-0.000811385
-0.00100778
-0.00134093
-0.00163735
-0.00198151
-0.00236323
-0.00279387
-0.00335982
-0.00407105
-0.00508198
-0.00652314
-0.00877688
-0.0124784
-0.0190999
0.00247947
0.00167029
0.000158038
0.00125408
0.000878649
0.00131062
0.00131271
0.000734889
0.00112107
0.000468163
0.000617395
0.000281739
8.52765e-05
-7.14923e-05
-0.000419071
-0.000553975
-0.000896063
-0.00109502
-0.00142655
-0.00172116
-0.00206639
-0.00245152
-0.00288473
-0.00345027
-0.00415868
-0.00516649
-0.00660596
-0.00885977
-0.0125627
-0.0191852
0.00247828
0.00166739
0.000151889
0.00124375
0.000863996
0.00129107
0.00128723
0.000701839
0.00108189
0.000424712
0.0005676
0.000223183
2.04674e-05
-0.000138533
-0.000487924
-0.000627492
-0.000975286
-0.00117745
-0.00150895
-0.00180246
-0.00214772
-0.00253425
-0.00296887
-0.0035344
-0.00424133
-0.00524716
-0.00668517
-0.0089383
-0.0126407
-0.0192627
0.00247553
0.00166303
0.000144578
0.00123252
0.000848544
0.00127097
0.0012618
0.000669784
0.00104356
0.000381603
0.000519431
0.000168045
-4.09284e-05
-0.000203376
-0.000554747
-0.000697539
-0.00104946
-0.00125452
-0.00158681
-0.00187999
-0.00222523
-0.00261224
-0.0030473
-0.0036125
-0.00431831
-0.00532265
-0.00675927
-0.00901112
-0.0127123
-0.0193339
0.00247157
0.0016575
0.000136376
0.00122074
0.000832673
0.0012506
0.00123652
0.000638814
0.00100679
0.000339737
0.000472948
0.000116031
-9.84482e-05
-0.000264811
-0.000618588
-0.000764031
-0.00111897
-0.00132629
-0.00165951
-0.00195274
-0.00229816
-0.00268541
-0.00312041
-0.00368482
-0.00438932
-0.00539219
-0.00682747
-0.00907816
-0.0127784
-0.0193999
0.00246658
0.00165101
0.000127468
0.00120859
0.000816775
0.0012304
0.00121174
0.00060908
0.000971992
0.000299947
0.000428642
6.71058e-05
-0.000151954
-0.000322123
-0.00067857
-0.000826475
-0.00118379
-0.00139281
-0.00172677
-0.00202013
-0.00236578
-0.00275325
-0.00318806
-0.00375148
-0.00445445
-0.00545574
-0.00688979
-0.00913963
-0.0128394
-0.0194612
0.00246085
0.00164389
0.000118166
0.00119635
0.000801199
0.0012109
0.00118798
0.000580875
0.000939455
0.000262898
0.000387217
2.15183e-05
-0.000201403
-0.00037491
-0.000733957
-0.000884192
-0.00124358
-0.00145396
-0.00178844
-0.00208178
-0.00242752
-0.00281517
-0.00324984
-0.00381239
-0.0045139
-0.00551362
-0.00694646
-0.00919558
-0.0128951
-0.0195174
0.00245473
0.00163651
0.000108842
0.00118438
0.000786322
0.00119259
0.00116581
0.000554686
0.00090952
0.000229075
0.00034931
-2.02703e-05
-0.000246546
-0.000422843
-0.000784138
-0.000936491
-0.00129773
-0.00150934
-0.00184421
-0.00213738
-0.002483
-0.00287073
-0.00330541
-0.00386741
-0.00456778
-0.00556613
-0.00699777
-0.00924612
-0.0129453
-0.019568
0.00244861
0.00162928
9.9962e-05
0.00117316
0.000772549
0.00117598
0.00114582
0.000531113
0.000882682
0.000198888
0.000315613
-5.75355e-05
-0.000286791
-0.000465464
-0.000828571
-0.00098266
-0.00134555
-0.00155831
-0.00189361
-0.00218654
-0.00253191
-0.0029196
-0.00335436
-0.00391612
-0.00461578
-0.00561311
-0.00704382
-0.00929155
-0.0129904
-0.0196133
0.00244275
0.00162268
9.19716e-05
0.00116324
0.000760471
0.00116152
0.00112872
0.000510774
0.000859558
0.000172962
0.00028686
-8.92796e-05
-0.00032122
-0.000501856
-0.000866363
-0.00102167
-0.00138589
-0.00159968
-0.00193543
-0.00222819
-0.00257322
-0.00296075
-0.00339557
-0.0039573
-0.00465661
-0.00565334
-0.00708351
-0.0093311
-0.0130304
-0.0196541
0.00243795
0.00161705
8.51507e-05
0.00115493
0.000750476
0.00114981
0.00111503
0.000494558
0.000840905
0.000152115
0.000263965
-0.000114583
-0.000348603
-0.000530803
-0.000896124
-0.00105211
-0.00141721
-0.00163184
-0.00196806
-0.00226066
-0.00260531
-0.00299255
-0.00342735
-0.0039891
-0.00468827
-0.00568464
-0.00711447
-0.009362
-0.0130616
-0.0196858
0.00243458
0.00161299
7.9648e-05
0.00114798
0.000741928
0.00113943
0.00110291
0.000480045
0.000823763
0.000132603
0.00024272
-0.00013798
-0.000373662
-0.000557603
-0.000924024
-0.00108096
-0.00144719
-0.00166293
-0.00200014
-0.00229314
-0.00263787
-0.00302496
-0.0034596
-0.00402109
-0.00471973
-0.00571528
-0.0071441
-0.00939092
-0.0130909
-0.0197185
0.0131428
0.0128549
0.0113891
0.00924039
0.00645989
0.00317355
-0.000447512
-0.0040275
-0.00685475
-0.00829235
-0.00835285
-0.00758392
-0.00656915
-0.00563808
-0.0049162
-0.00441121
-0.00408782
-0.00389573
-0.0037946
-0.00374696
-0.00372837
-0.00371859
-0.00370941
-0.00369436
-0.00367376
-0.00364662
-0.00361537
-0.00358109
-0.00354611
-0.00351162
-0.00347818
-0.00344721
-0.00341852
-0.00339387
-0.00337106
-0.00335146
-0.00333243
-0.0033172
-0.00330325
-0.00329351
-0.00328386
-0.00327701
-0.00326909
-0.00326348
-0.00325682
-0.00325231
-0.00324697
-0.00324357
-0.00323988
-0.00323796
-0.00323629
-0.00323586
-0.00323609
-0.00323689
-0.00323878
-0.00324051
-0.00324375
-0.00324623
-0.00325066
-0.00325393
-0.00325956
-0.00326386
-0.00327085
-0.00327659
-0.00328509
-0.00329244
-0.00330221
-0.00331101
-0.00332167
-0.00333185
-0.00334322
-0.00335478
-0.00336684
-0.00337988
-0.00339276
-0.00340742
-0.00342123
-0.00343735
-0.00345192
-0.00346899
-0.00348403
-0.00350154
-0.00351691
-0.00353455
-0.00355032
-0.00356787
-0.00358414
-0.00360142
-0.00361816
-0.00363494
-0.00365202
-0.00366817
-0.00368551
-0.00370123
-0.00371901
-0.00373481
-0.00375324
-0.00376957
-0.00378853
-0.0038056
-0.00382489
-0.00384299
-0.00386269
-0.00388231
-0.00390263
-0.00392399
-0.00394494
-0.00396784
-0.00398923
-0.00401323
-0.00403499
-0.00405963
-0.0040818
-0.00410656
-0.00412909
-0.00415339
-0.00417619
-0.00419958
-0.00422259
-0.0042449
-0.00426807
-0.00428939
-0.00431257
-0.00433313
-0.00435608
-0.0043763
-0.00439894
-0.00441957
-0.00444197
-0.0044635
-0.0044856
-0.00450824
-0.00453006
-0.00455374
-0.00457539
-0.00459981
-0.00462164
-0.00464652
-0.00466916
-0.00469435
-0.00471819
-0.00474306
-0.00476773
-0.00479165
-0.00481688
-0.00484012
-0.00486594
-0.0048891
-0.00491503
-0.00493835
-0.00496361
-0.0049873
-0.00501143
-0.00503571
-0.00505877
-0.00508376
-0.00510606
-0.00513112
-0.00515264
-0.00517672
-0.00519782
-0.0052205