/*--------------------------------*- C++ -*----------------------------------*\
| =========                 |                                                 |
| \\      /  F ield         | OpenFOAM: The Open Source CFD Toolbox           |
|  \\    /   O peration     | Version:  v2006                                 |
|   \\  /    A nd           | Website:  www.openfoam.com                      |
|    \\/     M anipulation  |                                                 |
\*---------------------------------------------------------------------------*/
FoamFile
{
    version     2.0;
    format      ascii;
    class       surfaceScalarField;
    location    "0.6";
    object      phi;
}
// * * * * * * * * * * * * * * * * * * * * * * * * * * * * * * * * * * * * * //

dimensions      [0 3 -1 0 0 0 0];
oriented        oriented;


internalField   nonuniform List<scalar> 
52390
(
1.17061e-06
-3.14325e-07
1.17206e-06
2.71381e-07
1.17322e-06
-2.61147e-07
1.175e-06
2.14178e-07
1.17604e-06
-1.82863e-07
1.17779e-06
1.59432e-07
1.18039e-06
-1.63599e-07
1.17972e-06
1.2846e-07
1.18384e-06
-1.40335e-07
1.18236e-06
1.12359e-07
1.18618e-06
-1.23531e-07
1.18495e-06
7.94039e-08
1.18781e-06
-8.37635e-08
1.18725e-06
6.69954e-08
1.18995e-06
-7.44973e-08
1.1893e-06
4.38973e-08
1.19184e-06
-5.27296e-08
1.19103e-06
2.32067e-08
1.19368e-06
-5.00558e-08
1.19204e-06
1.1805e-08
1.19474e-06
-4.52182e-08
1.19215e-06
1.16312e-08
1.19507e-06
-3.34986e-08
1.1918e-06
7.71476e-09
1.19467e-06
-2.23884e-08
1.19057e-06
7.67428e-09
1.19329e-06
-9.5607e-09
1.18658e-06
5.80161e-09
1.18215e-06
1.98683e-08
2.4802e-08
1.15361e-06
1.22758e-06
-3.17641e-07
1.22969e-06
2.69269e-07
1.23192e-06
-2.63383e-07
1.23359e-06
2.12511e-07
1.23556e-06
-1.84831e-07
1.23688e-06
1.58112e-07
1.24001e-06
-1.66729e-07
1.23949e-06
1.28982e-07
1.24336e-06
-1.44201e-07
1.2427e-06
1.13016e-07
1.24567e-06
-1.26502e-07
1.24551e-06
7.95593e-08
1.24718e-06
-8.54274e-08
1.24791e-06
6.62609e-08
1.24905e-06
-7.56355e-08
1.25004e-06
4.29029e-08
1.25047e-06
-5.31567e-08
1.25183e-06
2.18473e-08
1.25158e-06
-4.98013e-08
1.25313e-06
1.02557e-08
1.25175e-06
-4.38454e-08
1.25388e-06
9.49944e-09
1.25108e-06
-3.06931e-08
1.25429e-06
4.50905e-09
1.24942e-06
-1.75241e-08
1.25371e-06
3.38133e-09
1.24672e-06
-2.56342e-09
1.24986e-06
2.65558e-09
1.23791e-06
3.18201e-08
4.0147e-08
1.22257e-06
1.28615e-06
-3.21002e-07
1.29105e-06
2.64359e-07
1.29211e-06
-2.64434e-07
1.29652e-06
2.08095e-07
1.29652e-06
-1.8483e-07
1.30028e-06
1.54355e-07
1.30115e-06
-1.67605e-07
1.30313e-06
1.27003e-07
1.30454e-06
-1.45605e-07
1.30638e-06
1.11173e-07
1.30659e-06
-1.26709e-07
1.30902e-06
7.71227e-08
1.30782e-06
-8.42283e-08
1.31115e-06
6.2934e-08
1.30899e-06
-7.34793e-08
1.3128e-06
3.90998e-08
1.30982e-06
-5.01762e-08
1.31381e-06
1.7851e-08
1.31019e-06
-4.61746e-08
1.31422e-06
6.22382e-09
1.30988e-06
-3.95104e-08
1.31402e-06
5.36443e-09
1.30916e-06
-2.58367e-08
1.313e-06
6.72889e-10
1.30797e-06
-1.24963e-08
1.31071e-06
6.43177e-10
1.30651e-06
1.63355e-09
1.30389e-06
5.2796e-09
1.30103e-06
3.46795e-08
6.27901e-08
1.27838e-06
1.34677e-06
-3.23668e-07
1.354e-06
2.57129e-07
1.35341e-06
-2.6384e-07
1.36042e-06
2.01085e-07
1.35821e-06
-1.82626e-07
1.36412e-06
1.48443e-07
1.36268e-06
-1.66161e-07
1.36675e-06
1.22936e-07
1.3659e-06
-1.44756e-07
1.36947e-06
1.07606e-07
1.36747e-06
-1.24718e-07
1.37138e-06
7.32135e-08
1.36857e-06
-8.14185e-08
1.37281e-06
5.87026e-08
1.36911e-06
-6.97882e-08
1.37355e-06
3.46623e-08
1.3696e-06
-4.62226e-08
1.37355e-06
1.38989e-08
1.3695e-06
-4.21269e-08
1.37301e-06
2.71542e-09
1.36903e-06
-3.5534e-08
1.37218e-06
2.21445e-09
1.36846e-06
-2.21076e-08
1.37062e-06
-1.48732e-09
1.36759e-06
-9.47241e-09
1.36802e-06
2.16325e-10
1.36645e-06
3.20507e-09
1.3612e-06
1.05303e-08
1.36071e-06
3.51691e-08
8.61145e-08
1.33738e-06
1.40983e-06
-3.25145e-07
1.41817e-06
2.48793e-07
1.41589e-06
-2.61568e-07
1.42441e-06
1.92569e-07
1.42044e-06
-1.78654e-07
1.42742e-06
1.41459e-07
1.42436e-06
-1.63102e-07
1.42937e-06
1.17928e-07
1.42726e-06
-1.42647e-07
1.43127e-06
1.03597e-07
1.42837e-06
-1.2182e-07
1.43238e-06
6.92106e-08
1.42949e-06
-7.85317e-08
1.43329e-06
5.49001e-08
1.42965e-06
-6.61431e-08
1.4335e-06
3.08089e-08
1.42998e-06
-4.27025e-08
1.43305e-06
1.08324e-08
1.42957e-06
-3.86507e-08
1.4322e-06
8.77298e-11
1.429e-06
-3.23343e-08
1.4314e-06
-1.92347e-10
1.42852e-06
-1.92215e-08
1.42995e-06
-2.91648e-09
1.42777e-06
-7.29763e-09
1.42763e-06
3.56884e-10
1.42631e-06
4.5299e-09
1.42193e-06
1.49059e-08
1.41909e-06
3.80105e-08
1.12118e-07
1.39309e-06
1.47588e-06
-3.25344e-07
1.48403e-06
2.40635e-07
1.48044e-06
-2.57976e-07
1.48916e-06
1.83849e-07
1.48417e-06
-1.73666e-07
1.49116e-06
1.34478e-07
1.48731e-06
-1.59257e-07
1.49231e-06
1.12926e-07
1.48978e-06
-1.40118e-07
1.49349e-06
9.98897e-08
1.49054e-06
-1.18867e-07
1.49406e-06
6.56921e-08
1.49168e-06
-7.61575e-08
1.49487e-06
5.17085e-08
1.49167e-06
-6.29437e-08
1.49499e-06
2.74966e-08
1.49194e-06
-3.96592e-08
1.49452e-06
8.25415e-09
1.49136e-06
-3.54917e-08
1.49367e-06
-2.2184e-09
1.49075e-06
-2.94131e-08
1.49302e-06
-2.46137e-09
1.49036e-06
-1.65658e-08
1.49176e-06
-4.31485e-09
1.48957e-06
-5.10424e-09
1.48993e-06
-9.8972e-12
1.48734e-06
7.12087e-09
1.48524e-06
1.70054e-08
1.48415e-06
3.91044e-08
6.5573e-08
1.53069e-06
1.54535e-06
-3.24482e-07
1.55254e-06
2.33452e-07
1.5481e-06
-2.53538e-07
1.55616e-06
1.75791e-07
1.55075e-06
-1.68261e-07
1.55721e-06
1.28018e-07
1.55303e-06
-1.55072e-07
1.55771e-06
1.08248e-07
1.55501e-06
-1.37422e-07
1.55838e-06
9.65163e-08
1.55552e-06
-1.16004e-07
1.55864e-06
6.25724e-08
1.5566e-06
-7.41189e-08
1.55953e-06
4.87814e-08
1.55657e-06
-5.99817e-08
1.55968e-06
2.43774e-08
1.55681e-06
-3.67872e-08
1.55931e-06
5.7516e-09
1.55619e-06
-3.23694e-08
1.55847e-06
-4.49352e-09
1.55558e-06
-2.65225e-08
1.55781e-06
-4.69333e-09
1.55528e-06
-1.40379e-08
1.5565e-06
-5.53494e-09
1.55471e-06
-3.3157e-09
1.55426e-06
4.41998e-10
1.55337e-06
8.0158e-09
1.54866e-06
2.17089e-08
1.54453e-06
4.3239e-08
9.65022e-08
1.5136e-06
1.6185e-06
-3.22849e-07
1.62457e-06
2.27383e-07
1.61962e-06
-2.48588e-07
1.62677e-06
1.68639e-07
1.6212e-06
-1.62695e-07
1.62718e-06
1.22041e-07
1.6227e-06
-1.50596e-07
1.62718e-06
1.03765e-07
1.62419e-06
-1.34423e-07
1.6275e-06
9.32021e-08
1.62454e-06
-1.1304e-07
1.6275e-06
5.96042e-08
1.62546e-06
-7.20697e-08
1.62841e-06
4.58306e-08
1.62545e-06
-5.70224e-08
1.62856e-06
2.12691e-08
1.62568e-06
-3.39086e-08
1.62825e-06
3.18241e-09
1.62509e-06
-2.92101e-08
1.62735e-06
-6.75764e-09
1.62446e-06
-2.36305e-08
1.62655e-06
-6.78252e-09
1.62417e-06
-1.16627e-08
1.62508e-06
-6.44449e-09
1.62358e-06
-1.81327e-09
1.62253e-06
1.49077e-09
1.62225e-06
8.29367e-09
1.6174e-06
2.65632e-08
1.61279e-06
4.78517e-08
1.33095e-07
1.57619e-06
1.69537e-06
-3.2064e-07
1.70066e-06
2.2209e-07
1.69533e-06
-2.43257e-07
1.70177e-06
1.62198e-07
1.69605e-06
-1.56975e-07
1.70183e-06
1.16263e-07
1.69696e-06
-1.45729e-07
1.70149e-06
9.92365e-08
1.698e-06
-1.30933e-07
1.7015e-06
8.96949e-08
1.69825e-06
-1.09781e-07
1.70124e-06
5.66081e-08
1.69895e-06
-6.97763e-08
1.70205e-06
4.27317e-08
1.69896e-06
-5.39407e-08
1.70211e-06
1.81244e-08
1.69916e-06
-3.0963e-08
1.70181e-06
5.35422e-10
1.69862e-06
-2.60201e-08
1.70083e-06
-8.97152e-09
1.69794e-06
-2.07346e-08
1.69987e-06
-8.70954e-09
1.69743e-06
-9.22468e-09
1.69853e-06
-7.54731e-09
1.69591e-06
8.04462e-10
1.69684e-06
5.66346e-10
1.69188e-06
1.32493e-08
1.6966e-06
2.18413e-08
1.69781e-06
4.66456e-08
8.35151e-08
1.74739e-06
1.77599e-06
-3.17912e-07
1.78101e-06
2.17071e-07
1.77529e-06
-2.37536e-07
1.78137e-06
1.56123e-07
1.77542e-06
-1.51031e-07
1.78127e-06
1.10413e-07
1.77595e-06
-1.40406e-07
1.78069e-06
9.44926e-08
1.77663e-06
-1.26872e-07
1.78047e-06
8.58585e-08
1.77682e-06
-1.0613e-07
1.77995e-06
5.34775e-08
1.77731e-06
-6.71363e-08
1.78059e-06
3.9447e-08
1.77734e-06
-5.06902e-08
1.78052e-06
1.49447e-08
1.77752e-06
-2.79619e-08
1.78019e-06
-2.12992e-09
1.77704e-06
-2.28769e-08
1.77909e-06
-1.10228e-08
1.77633e-06
-1.79729e-08
1.77787e-06
-1.02497e-08
1.77572e-06
-7.06662e-09
1.77631e-06
-8.14511e-09
1.77383e-06
3.28995e-09
1.77463e-06
-2.32692e-10
1.76865e-06
1.92208e-08
1.77526e-06
1.52384e-08
1.777e-06
4.49068e-08
2.75677e-08
1.83294e-06
1.86045e-06
-3.14615e-07
1.86566e-06
2.11858e-07
1.85948e-06
-2.3135e-07
1.86551e-06
1.50094e-07
1.85928e-06
-1.44807e-07
1.86536e-06
1.04333e-07
1.8596e-06
-1.34647e-07
1.86464e-06
8.94602e-08
1.86003e-06
-1.22266e-07
1.86424e-06
8.16481e-08
1.86017e-06
-1.02065e-07
1.86351e-06
5.01453e-08
1.8605e-06
-6.413e-08
1.86398e-06
3.59694e-08
1.86056e-06
-4.72707e-08
1.86376e-06
1.17444e-08
1.86074e-06
-2.49465e-08
1.86335e-06
-4.73992e-09
1.86035e-06
-1.98734e-08
1.86213e-06
-1.28018e-08
1.85965e-06
-1.54889e-08
1.86065e-06
-1.12499e-08
1.85899e-06
-5.41301e-09
1.85862e-06
-7.76835e-09
1.85749e-06
4.42018e-09
1.85563e-06
1.62038e-09
1.85399e-06
2.08612e-08
1.84914e-06
2.00927e-08
1.83949e-06
5.45545e-08
6.34317e-08
1.80363e-06
1.94887e-06
-3.10643e-07
1.95463e-06
2.06091e-07
1.94789e-06
-2.246e-07
1.9541e-06
1.4388e-07
1.94758e-06
-1.38283e-07
1.95393e-06
9.79762e-08
1.94782e-06
-1.28529e-07
1.95313e-06
8.41419e-08
1.94807e-06
-1.17201e-07
1.95264e-06
7.70764e-08
1.94819e-06
-9.76143e-08
1.95176e-06
4.65727e-08
1.94841e-06
-6.07814e-08
1.95208e-06
3.23063e-08
1.94852e-06
-4.37113e-08
1.95171e-06
8.55171e-09
1.94875e-06
-2.19858e-08
1.95121e-06
-7.19961e-09
1.94846e-06
-1.71198e-08
1.94986e-06
-1.42022e-08
1.94777e-06
-1.34071e-08
1.94817e-06
-1.1647e-08
1.94704e-06
-4.28258e-09
1.94586e-06
-6.58337e-09
1.94552e-06
4.75743e-09
1.94209e-06
5.04846e-09
1.94309e-06
1.98626e-08
1.93204e-06
3.11368e-08
1.92758e-06
5.90192e-08
9.46529e-08
1.89636e-06
2.04141e-06
-3.05868e-07
2.048e-06
1.99502e-07
2.04059e-06
-2.17186e-07
2.04714e-06
1.37326e-07
2.04033e-06
-1.31466e-07
2.04693e-06
9.13677e-08
2.04057e-06
-1.22163e-07
2.04611e-06
7.85947e-08
2.04071e-06
-1.11794e-07
2.04559e-06
7.21951e-08
2.0408e-06
-9.28302e-08
2.04462e-06
4.27542e-08
2.04098e-06
-5.71422e-08
2.0448e-06
2.8488e-08
2.04116e-06
-4.00714e-08
2.04429e-06
5.42568e-09
2.04148e-06
-1.91814e-08
2.04367e-06
-9.38708e-09
2.0413e-06
-1.47463e-08
2.04221e-06
-1.51111e-08
2.04064e-06
-1.18401e-08
2.04043e-06
-1.14338e-08
2.03968e-06
-3.53542e-09
2.03821e-06
-5.11545e-09
2.03742e-06
5.54713e-09
2.03443e-06
8.04372e-09
2.03337e-06
2.09227e-08
2.02638e-06
3.81197e-08
2.01502e-06
7.03855e-08
1.27871e-07
1.9818e-06
2.1383e-06
-3.00162e-07
2.1459e-06
1.91893e-07
2.13773e-06
-2.09012e-07
2.14471e-06
1.30345e-07
2.13763e-06
-1.24382e-07
2.14442e-06
8.45758e-08
2.13793e-06
-1.15671e-07
2.14361e-06
7.29112e-08
2.13799e-06
-1.06171e-07
2.14311e-06
6.70784e-08
2.13805e-06
-8.77798e-08
2.1421e-06
3.8709e-08
2.13823e-06
-5.32741e-08
2.14216e-06
2.4558e-08
2.13851e-06
-3.64218e-08
2.1415e-06
2.43454e-09
2.13895e-06
-1.66294e-08
2.14077e-06
-1.1204e-08
2.13885e-06
-1.28309e-08
2.13925e-06
-1.55089e-08
2.13814e-06
-1.07283e-08
2.13757e-06
-1.08633e-08
2.13672e-06
-2.68516e-09
2.13576e-06
-4.16132e-09
2.13353e-06
7.78063e-09
2.13187e-06
9.70508e-09
2.12627e-06
2.6524e-08
2.1323e-06
3.20926e-08
2.15608e-06
4.65981e-08
5.28744e-08
2.23108e-06
2.23974e-06
-2.93412e-07
2.2485e-06
1.83132e-07
2.23949e-06
-2.00005e-07
2.24694e-06
1.22895e-07
2.23963e-06
-1.17073e-07
2.24652e-06
7.76866e-08
2.24003e-06
-1.09179e-07
2.24575e-06
6.71963e-08
2.24003e-06
-1.00456e-07
2.2453e-06
6.18094e-08
2.24006e-06
-8.25407e-08
2.24429e-06
3.4482e-08
2.24027e-06
-4.92573e-08
2.24424e-06
2.059e-08
2.24069e-06
-3.28685e-08
2.24343e-06
-3.05446e-10
2.24127e-06
-1.4478e-08
2.24256e-06
-1.24895e-08
2.24127e-06
-1.15419e-08
2.24098e-06
-1.52145e-08
2.24058e-06
-1.03295e-08
2.23916e-06
-9.44866e-09
2.23922e-06
-2.7378e-09
2.23692e-06
-1.86559e-09
2.23625e-06
8.45303e-09
2.23295e-06
1.30071e-08
2.23065e-06
2.8822e-08
2.2236e-06
3.91373e-08
2.20766e-06
6.25414e-08
8.36775e-08
2.17686e-06
2.34601e-06
-2.85545e-07
2.35599e-06
1.7315e-07
2.3461e-06
-1.90119e-07
2.35402e-06
1.14976e-07
2.34653e-06
-1.09584e-07
2.35344e-06
7.07784e-08
2.34705e-06
-1.02786e-07
2.35271e-06
6.1531e-08
2.347e-06
-9.474e-08
2.35236e-06
5.64533e-08
2.347e-06
-7.71822e-08
2.35135e-06
3.01279e-08
2.34727e-06
-4.51803e-08
2.35119e-06
1.66784e-08
2.34785e-06
-2.95383e-08
2.35021e-06
-2.66197e-09
2.3486e-06
-1.28702e-08
2.34923e-06
-1.31119e-08
2.34866e-06
-1.09789e-08
2.34761e-06
-1.41612e-08
2.34799e-06
-1.07062e-08
2.34559e-06
-7.0561e-09
2.34685e-06
-3.99144e-09
2.34274e-06
2.24269e-09
2.34437e-06
6.81769e-09
2.33853e-06
1.88552e-08
2.33958e-06
2.77663e-08
2.32474e-06
5.3977e-08
2.31528e-06
7.20033e-08
1.07857e-07
2.2911e-06
2.45739e-06
-2.76544e-07
2.4686e-06
1.61946e-07
2.45783e-06
-1.79347e-07
2.46619e-06
1.06612e-07
2.45856e-06
-1.0195e-07
2.46543e-06
6.39036e-08
2.4592e-06
-9.65501e-08
2.46476e-06
5.59622e-08
2.45911e-06
-8.90841e-08
2.46449e-06
5.10687e-08
2.45909e-06
-7.1783e-08
2.46349e-06
2.57305e-08
2.45947e-06
-4.11556e-08
2.46321e-06
1.29363e-08
2.46021e-06
-2.65385e-08
2.46212e-06
-4.57042e-09
2.46106e-06
-1.18125e-08
2.46113e-06
-1.31792e-08
2.46099e-06
-1.08378e-08
2.45978e-06
-1.29511e-08
2.45991e-06
-1.08416e-08
2.45829e-06
-5.4307e-09
2.45799e-06
-3.70009e-09
2.45593e-06
4.31151e-09
2.45434e-06
8.39905e-09
2.45126e-06
2.19425e-08
2.4489e-06
3.01203e-08
2.44072e-06
6.21579e-08
2.42265e-06
9.00716e-08
1.42007e-07
2.3885e-06
2.57421e-06
-2.66459e-07
2.58659e-06
1.49567e-07
2.57495e-06
-1.67707e-07
2.58373e-06
9.78278e-08
2.57596e-06
-9.41776e-08
2.58279e-06
5.70681e-08
2.57672e-06
-9.04771e-08
2.58218e-06
5.04998e-08
2.57662e-06
-8.3526e-08
2.58198e-06
4.57177e-08
2.57663e-06
-6.64382e-08
2.58096e-06
2.14035e-08
2.57712e-06
-3.73191e-08
2.58056e-06
9.49615e-09
2.578e-06
-2.3975e-08
2.57942e-06
-5.99028e-09
2.57886e-06
-1.12506e-08
2.57854e-06
-1.28584e-08
2.57854e-06
-1.08429e-08
2.57758e-06
-1.19903e-08
2.5769e-06
-1.0159e-08
2.57676e-06
-5.29034e-09
2.57407e-06
-1.01806e-09
2.57511e-06
3.27395e-09
2.56959e-06
1.39183e-08
2.56891e-06
2.26266e-08
2.56124e-06
3.77888e-08
2.57822e-06
4.51755e-08
2.61411e-06
5.41822e-08
5.50674e-08
2.70105e-06
2.69676e-06
-2.55388e-07
2.71024e-06
1.36087e-07
2.69776e-06
-1.55226e-07
2.70695e-06
8.86307e-08
2.69901e-06
-8.62297e-08
2.70584e-06
5.02332e-08
2.6999e-06
-8.4533e-08
2.70526e-06
4.51388e-08
2.69984e-06
-7.81111e-08
2.70506e-06
4.05034e-08
2.69992e-06
-6.13017e-08
2.70399e-06
1.73358e-08
2.70055e-06
-3.38786e-08
2.70347e-06
6.56966e-09
2.70155e-06
-2.20547e-08
2.7023e-06
-6.73188e-09
2.70242e-06
-1.13762e-08
2.70141e-06
-1.18507e-08
2.70211e-06
-1.15434e-08
2.70034e-06
-1.02151e-08
2.70077e-06
-1.05906e-08
2.69887e-06
-3.3926e-09
2.69857e-06
-7.11851e-10
2.69627e-06
5.56674e-09
2.69439e-06
1.57979e-08
2.69146e-06
2.55577e-08
2.6882e-06
4.10483e-08
2.6791e-06
5.42783e-08
2.65802e-06
7.52654e-08
8.98651e-08
2.62322e-06
2.82533e-06
-2.43448e-07
2.83983e-06
1.21587e-07
2.82654e-06
-1.41942e-07
2.83615e-06
7.90206e-08
2.82798e-06
-7.80509e-08
2.83487e-06
4.33374e-08
2.82899e-06
-7.86522e-08
2.83428e-06
3.98467e-08
2.82902e-06
-7.28465e-08
2.83404e-06
3.5484e-08
2.82919e-06
-5.64578e-08
2.83292e-06
1.36126e-08
2.82993e-06
-3.08876e-08
2.83234e-06
4.15956e-09
2.83097e-06
-2.06849e-08
2.83123e-06
-6.99573e-09
2.83177e-06
-1.19182e-08
2.83034e-06
-1.04147e-08
2.83161e-06
-1.28211e-08
2.82889e-06
-7.49059e-09
2.83078e-06
-1.24849e-08
2.82643e-06
9.58886e-10
2.82956e-06
-3.83461e-09
2.82309e-06
1.20349e-08
2.82676e-06
1.21301e-08
2.81897e-06
3.33379e-08
2.82031e-06
3.97095e-08
2.79971e-06
7.48784e-08
2.79032e-06
8.46616e-08
1.14547e-07
2.76564e-06
2.96022e-06
-2.30773e-07
2.97563e-06
1.06182e-07
2.96162e-06
-1.27931e-07
2.9716e-06
6.90361e-08
2.96317e-06
-6.96252e-08
2.97014e-06
3.63669e-08
2.96431e-06
-7.28199e-08
2.9695e-06
3.46608e-08
2.9645e-06
-6.78519e-08
2.96909e-06
3.0899e-08
2.96488e-06
-5.22453e-08
2.96784e-06
1.06513e-08
2.96576e-06
-2.88071e-08
2.96721e-06
2.70253e-09
2.96673e-06
-2.02004e-08
2.96635e-06
-6.61947e-09
2.96719e-06
-1.27575e-08
2.96586e-06
-9.07945e-09
2.96662e-06
-1.35855e-08
2.96499e-06
-5.86161e-09
2.96509e-06
-1.2582e-08
2.96318e-06
2.86576e-09
2.96275e-06
-3.40578e-09
2.95973e-06
1.50538e-08
2.9582e-06
1.36694e-08
2.95555e-06
3.59823e-08
2.95308e-06
4.21796e-08
2.94208e-06
8.58774e-08
2.91667e-06
1.10074e-07
1.52444e-07
2.87877e-06
3.10173e-06
-2.17496e-07
3.11793e-06
8.99792e-08
3.10328e-06
-1.13276e-07
3.11359e-06
5.87188e-08
3.10491e-06
-6.09427e-08
3.11197e-06
2.93132e-08
3.10616e-06
-6.70147e-08
3.11125e-06
2.9575e-08
3.10651e-06
-6.3113e-08
3.11069e-06
2.67117e-08
3.10699e-06
-4.85388e-08
3.10953e-06
8.10968e-09
3.10757e-06
-2.6847e-08
3.10943e-06
8.41513e-10
3.10785e-06
-1.86226e-08
3.10945e-06
-8.21939e-09
3.10734e-06
-1.06497e-08
3.10992e-06
-1.16563e-08
3.10559e-06
-9.2538e-09
3.11023e-06
-1.05031e-08
3.10257e-06
-4.91838e-09
3.10993e-06
-4.5e-09
3.09952e-06
7.01108e-09
3.10755e-06
7.02424e-09
3.09532e-06
2.58964e-08
3.09869e-06
3.26075e-08
3.08835e-06
5.25216e-08
3.1213e-06
5.29295e-08
3.1674e-06
6.3974e-08
6.02023e-08
3.25964e-06
3.25015e-06
-2.03735e-07
3.26705e-06
7.3076e-08
3.25185e-06
-9.8074e-08
3.26244e-06
4.81246e-08
3.25353e-06
-5.20301e-08
3.2606e-06
2.22433e-08
3.25492e-06
-6.13295e-08
3.25974e-06
2.47557e-08
3.2555e-06
-5.88795e-08
3.25892e-06
2.32917e-08
3.25624e-06
-4.58524e-08
3.25763e-06
6.71044e-09
3.2569e-06
-2.61123e-08
3.25735e-06
3.91463e-10
3.25764e-06
-1.89081e-08
3.25666e-06
-7.23866e-09
3.25816e-06
-1.21561e-08
3.25586e-06
-9.35511e-09
3.25808e-06
-1.14698e-08
3.25413e-06
-6.55587e-09
3.25728e-06
-8.06878e-09
3.25143e-06
1.34742e-09
3.25518e-06
3.26414e-09
3.24783e-06
1.43748e-08
3.25195e-06
2.17713e-08
3.24563e-06
3.89335e-08
3.24734e-06
5.08076e-08
3.22671e-06
7.35628e-08
3.20316e-06
8.75227e-08
1.02033e-07
3.16133e-06
3.40577e-06
-1.89573e-07
3.42325e-06
5.5595e-08
3.40767e-06
-8.24964e-08
3.41839e-06
3.74062e-08
3.40939e-06
-4.30247e-08
3.4163e-06
1.53328e-08
3.41092e-06
-5.59493e-08
3.41525e-06
2.04204e-08
3.41176e-06
-5.5388e-08
3.41415e-06
2.09013e-08
3.41278e-06
-4.4478e-08
3.41272e-06
6.77025e-09
3.41355e-06
-2.69497e-08
3.41236e-06
1.58198e-09
3.41433e-06
-2.08774e-08
3.41156e-06
-4.47103e-09
3.41493e-06
-1.5521e-08
3.41071e-06
-5.13839e-09
3.41482e-06
-1.55735e-08
3.40902e-06
-7.56616e-10
3.41388e-06
-1.29352e-08
3.40613e-06
9.10479e-09
3.41198e-06
-2.58888e-09
3.40268e-06
2.36788e-08
3.4081e-06
1.63496e-08
3.40162e-06
4.54096e-08
3.40662e-06
4.58066e-08
3.38231e-06
9.78773e-08
3.3553e-06
1.14533e-07
1.46535e-07
3.3108e-06
3.56896e-06
-1.75123e-07
3.58683e-06
3.77266e-08
3.57112e-06
-6.67918e-08
3.58175e-06
2.67763e-08
3.5728e-06
-3.40745e-08
3.57944e-06
8.69361e-09
3.57434e-06
-5.08412e-08
3.57846e-06
1.63005e-08
3.57503e-06
-5.19597e-08
3.57772e-06
1.82136e-08
3.57549e-06
-4.22572e-08
3.57718e-06
5.08804e-09
3.57493e-06
-2.47026e-08
3.57846e-06
-1.94776e-09
3.57398e-06
-1.63963e-08
3.57947e-06
-9.96027e-09
3.57254e-06
-8.59722e-09
3.58076e-06
-1.33558e-08
3.56984e-06
-4.65423e-09
3.5818e-06
-1.27116e-08
3.56628e-06
2.58531e-09
3.58186e-06
-6.47729e-09
3.56336e-06
1.59143e-08
3.57965e-06
7.38502e-09
3.55948e-06
3.6521e-08
3.56976e-06
3.51279e-08
3.55565e-06
5.99143e-08
3.60431e-06
4.92147e-08
3.65644e-06
6.24104e-08
5.855e-08
3.74442e-06
3.74008e-06
-1.60501e-07
3.75815e-06
1.96556e-08
3.7426e-06
-5.12414e-08
3.75291e-06
1.64655e-08
3.74422e-06
-2.53773e-08
3.75029e-06
2.61851e-09
3.7458e-06
-4.63488e-08
3.74924e-06
1.28639e-08
3.74655e-06
-4.92684e-08
3.74842e-06
1.6336e-08
3.74738e-06
-4.12131e-08
3.74704e-06
5.42831e-09
3.74834e-06
-2.60065e-08
3.74624e-06
1.50516e-10
3.74973e-06
-1.98854e-08
3.74471e-06
-4.93994e-09
3.751e-06
-1.48838e-08
3.74309e-06
-5.44813e-09
3.75127e-06
-1.2829e-08
3.74149e-06
-2.93483e-09
3.74979e-06
-5.71214e-09
3.73913e-06
4.17779e-09
3.74662e-06
8.42319e-09
3.73679e-06
1.72182e-08
3.74491e-06
2.83986e-08
3.73795e-06
4.20896e-08
3.73778e-06
6.00852e-08
3.71465e-06
7.23441e-08
3.68431e-06
9.2751e-08
1.07783e-07
3.63508e-06
3.9195e-06
-1.45811e-07
3.93747e-06
1.68091e-09
3.92259e-06
-3.63559e-08
3.93213e-06
6.92653e-09
3.92407e-06
-1.73245e-08
3.92912e-06
-2.42963e-09
3.92563e-06
-4.28599e-08
3.92809e-06
1.04026e-08
3.92623e-06
-4.74056e-08
3.92759e-06
1.49822e-08
3.92694e-06
-4.05719e-08
3.92606e-06
6.31021e-09
3.92838e-06
-2.83269e-08
3.92461e-06
3.92043e-09
3.93038e-06
-2.5656e-08
3.92235e-06
3.0884e-09
3.93254e-06
-2.50688e-08
3.9196e-06
7.48867e-09
3.93412e-06
-2.73492e-08
3.91639e-06
1.4796e-08
3.93452e-06
-2.3837e-08
3.91295e-06
2.57434e-08
3.93358e-06
-1.22015e-08
3.91111e-06
3.96818e-08
3.93397e-06
5.54332e-09
3.91544e-06
6.06211e-08
3.93634e-06
3.91841e-08
3.89076e-06
1.17924e-07
3.85826e-06
1.25253e-07
1.55506e-07
3.81053e-06
4.10764e-06
-1.312e-07
4.12518e-06
-1.58636e-08
4.11141e-06
-2.25853e-08
4.11993e-06
-1.58701e-09
4.11246e-06
-9.85651e-09
4.11687e-06
-6.83665e-09
4.11344e-06
-3.9437e-08
4.11667e-06
7.17211e-09
4.1127e-06
-4.34337e-08
4.11814e-06
9.54057e-09
4.11102e-06
-3.34529e-08
4.11945e-06
-2.11773e-09
4.10912e-06
-1.79971e-08
4.12165e-06
-8.60901e-09
4.10729e-06
-1.12899e-08
4.12309e-06
-1.2714e-08
4.10577e-06
-7.75157e-09
4.12372e-06
-1.04588e-08
4.10428e-06
-7.91435e-09
4.12329e-06
-4.21526e-09
4.10262e-06
-3.16224e-09
4.12101e-06
7.35651e-09
4.10065e-06
8.15374e-09
4.11678e-06
2.35513e-08
4.09806e-06
2.42615e-08
4.11611e-06
4.2575e-08
4.10765e-06
4.7646e-08
4.15852e-06
6.70551e-08
4.21064e-06
7.31319e-08
8.53802e-08
4.28076e-06
4.30495e-06
-1.16847e-07
4.32167e-06
-3.25838e-08
4.3098e-06
-1.07184e-08
4.31655e-06
-8.3361e-09
4.31044e-06
-3.74392e-09
4.3131e-06
-9.50188e-09
4.31118e-06
-3.7511e-08
4.31272e-06
5.62953e-09
4.31063e-06
-4.13445e-08
4.31427e-06
5.9045e-09
4.30881e-06
-2.79973e-08
4.31569e-06
-8.99673e-09
4.307e-06
-9.30511e-09
4.31788e-06
-1.94861e-08
4.30492e-06
1.66493e-09
4.31969e-06
-2.74791e-08
4.30296e-06
8.97891e-09
4.32073e-06
-2.8233e-08
4.30117e-06
1.16434e-08
4.32056e-06
-2.35981e-08
4.29911e-06
1.8285e-08
4.31919e-06
-1.27244e-08
4.29686e-06
3.04796e-08
4.31511e-06
5.3035e-09
4.29325e-06
4.61269e-08
4.31284e-06
2.29845e-08
4.31095e-06
4.95276e-08
4.36175e-06
1.6265e-08
4.41007e-06
2.48095e-08
4.4167e-09
4.49103e-06
4.51187e-06
-1.02946e-07
4.52715e-06
-4.78662e-08
4.51823e-06
-1.79605e-09
4.52254e-06
-1.26474e-08
4.51806e-06
7.42283e-10
4.51891e-06
-1.03568e-08
4.51839e-06
-3.6988e-08
4.51798e-06
6.03591e-09
4.51889e-06
-4.22505e-08
4.5179e-06
6.8952e-09
4.51927e-06
-2.93672e-08
4.5168e-06
-6.52878e-09
4.52022e-06
-1.27261e-08
4.51587e-06
-1.51299e-08
4.52133e-06
-3.79999e-09
4.51464e-06
-2.07936e-08
4.52225e-06
1.37569e-09
4.51351e-06
-1.94998e-08
4.52192e-06
3.23868e-09
4.51193e-06
-1.361e-08
4.51936e-06
1.0857e-08
4.50856e-06
-1.92659e-09
4.51392e-06
2.51231e-08
4.50487e-06
1.43516e-08
4.51281e-06
3.81854e-08
4.50543e-06
3.03685e-08
4.50895e-06
4.6004e-08
4.48043e-06
4.47808e-08
4.44293e-06
6.2317e-08
6.20353e-08
4.38531e-06
4.7287e-06
-8.95263e-08
4.74282e-06
-6.19893e-08
4.73519e-06
5.82778e-09
4.73915e-06
-1.66021e-08
4.73454e-06
5.34711e-09
4.7356e-06
-1.14129e-08
4.73421e-06
-3.56002e-08
4.7344e-06
5.84994e-09
4.73557e-06
-4.3425e-08
4.73293e-06
9.53632e-09
4.73753e-06
-3.39676e-08
4.7306e-06
4.01337e-10
4.73933e-06
-2.14536e-08
4.72895e-06
-4.75053e-09
4.74116e-06
-1.60071e-08
4.72693e-06
-6.56141e-09
4.74263e-06
-1.43295e-08
4.7255e-06
-2.3688e-09
4.74271e-06
-1.39758e-08
4.72422e-06
4.88369e-09
4.7414e-06
-6.32686e-09
4.72305e-06
1.64283e-08
4.74029e-06
7.88105e-09
4.72339e-06
3.12548e-08
4.73712e-06
2.44518e-08
4.71497e-06
5.25252e-08
4.7121e-06
4.88697e-08
4.6873e-06
6.95785e-08
4.68086e-06
6.87601e-08
9.43812e-08
4.64851e-06
4.95635e-06
-7.70786e-08
4.96654e-06
-7.21836e-08
4.96533e-06
7.04593e-09
4.96302e-06
-1.42925e-08
4.96524e-06
3.12247e-09
4.95999e-06
-6.16447e-09
4.96335e-06
-3.89585e-08
4.95947e-06
9.72932e-09
4.96369e-06
-4.76465e-08
4.95938e-06
1.38518e-08
4.96381e-06
-3.8404e-08
4.95912e-06
5.09181e-09
4.96364e-06
-2.59717e-08
4.95901e-06
-1.16914e-10
4.96393e-06
-2.09317e-08
4.95832e-06
-9.43925e-10
4.96364e-06
-1.96496e-08
4.95809e-06
3.17439e-09
4.96164e-06
-1.75266e-08
4.95502e-06
1.15036e-08
4.95701e-06
-8.31667e-09
4.95021e-06
2.32291e-08
4.9516e-06
6.49499e-09
4.94759e-06
3.52614e-08
4.94822e-06
2.38244e-08
4.94994e-06
5.08016e-08
4.94785e-06
5.09608e-08
4.91932e-06
9.8109e-08
4.87589e-06
1.12193e-07
1.30823e-07
4.83945e-06
5.19465e-06
-6.54129e-08
5.20362e-06
-8.11565e-08
5.20168e-06
8.98943e-09
5.20343e-06
-1.60423e-08
5.1994e-06
7.15345e-09
5.20215e-06
-8.91542e-09
5.19492e-06
-3.17238e-08
5.20418e-06
4.62243e-10
5.19268e-06
-3.61413e-08
5.20682e-06
-2.90718e-10
5.18978e-06
-2.13619e-08
5.2089e-06
-1.40351e-08
5.18765e-06
-4.71513e-09
5.21032e-06
-2.27872e-08
5.18656e-06
2.8273e-09
5.21057e-06
-2.495e-08
5.18606e-06
4.85674e-09
5.21043e-06
-2.11944e-08
5.18606e-06
6.83622e-09
5.20912e-06
-1.15537e-08
5.18658e-06
1.42216e-08
5.20599e-06
3.82596e-09
5.18265e-06
2.98313e-08
5.19359e-06
2.43197e-08
5.17293e-06
4.44839e-08
5.18468e-06
3.90594e-08
5.19052e-06
4.51149e-08
5.26276e-06
2.58726e-08
5.3496e-06
2.53501e-08
2.68351e-08
5.45359e-06
5.44488e-06
-5.51081e-08
5.44816e-06
-8.44324e-08
5.45435e-06
2.79832e-09
5.44643e-06
-8.11624e-09
5.45506e-06
-1.48599e-09
5.44481e-06
1.33569e-09
5.45213e-06
-3.90437e-08
5.44483e-06
7.7682e-09
5.45105e-06
-4.23613e-08
5.44614e-06
4.61882e-09
5.44951e-06
-2.4732e-08
5.44719e-06
-1.17138e-08
5.44863e-06
-6.15883e-09
5.44694e-06
-2.11005e-08
5.44807e-06
1.70125e-09
5.44581e-06
-2.26895e-08
5.44687e-06
3.80068e-09
5.44361e-06
-1.79417e-08
5.44404e-06
6.41296e-09
5.44048e-06
-8.00021e-09
5.44063e-06
1.40776e-08
5.43625e-06
8.20655e-09
5.43664e-06
2.94389e-08
5.43447e-06
2.6483e-08
5.43593e-06
4.30328e-08
5.43504e-06
3.99498e-08
5.4242e-06
5.59542e-08
5.3979e-06
5.21643e-08
5.35957e-06
6.36801e-08
6.47515e-08
5.32166e-06
5.70646e-06
-4.56111e-08
5.70892e-06
-8.6894e-08
5.7135e-06
-1.77897e-09
5.71135e-06
-5.96349e-09
5.71398e-06
-4.11557e-09
5.70816e-06
7.15113e-09
5.71046e-06
-4.13442e-08
5.70679e-06
1.14375e-08
5.71041e-06
-4.59742e-08
5.70679e-06
8.23283e-09
5.71083e-06
-2.87682e-08
5.7066e-06
-7.48349e-09
5.71152e-06
-1.10793e-08
5.70483e-06
-1.44164e-08
5.71221e-06
-5.67624e-09
5.70374e-06
-1.42148e-08
5.71217e-06
-4.63558e-09
5.70304e-06
-8.80884e-09
5.71026e-06
-8.09121e-10
5.70074e-06
1.52458e-09
5.70583e-06
8.98627e-09
5.69759e-06
1.64435e-08
5.70267e-06
2.43595e-08
5.69482e-06
3.43301e-08
5.695e-06
4.28538e-08
5.68243e-06
5.25225e-08
5.67742e-06
6.09683e-08
5.66032e-06
6.92644e-08
5.64532e-06
7.8675e-08
8.76119e-08
5.62246e-06
5.98087e-06
-3.72927e-08
5.98035e-06
-8.63701e-08
5.98723e-06
-8.65756e-09
5.98359e-06
-2.32549e-09
5.98919e-06
-9.71626e-09
5.9799e-06
1.64421e-08
5.98656e-06
-4.80053e-08
5.97781e-06
2.01885e-08
5.98665e-06
-5.48125e-08
5.97769e-06
1.71921e-08
5.98655e-06
-3.76304e-08
5.97848e-06
5.86628e-10
5.9858e-06
-1.83986e-08
5.97799e-06
-6.60552e-09
5.98507e-06
-1.27516e-08
5.97752e-06
-6.66524e-09
5.98217e-06
-9.29285e-09
5.97567e-06
-2.30648e-09
5.97782e-06
-2.96198e-09
5.97265e-06
6.6999e-09
5.97483e-06
6.80438e-09
5.97077e-06
2.05064e-08
5.97403e-06
2.10935e-08
5.96894e-06
3.94203e-08
5.96831e-06
4.34855e-08
5.95627e-06
6.45684e-08
5.95005e-06
6.71862e-08
5.93309e-06
8.62191e-08
5.92032e-06
9.14465e-08
1.02562e-07
5.90537e-06
6.26845e-06
-3.02543e-08
6.26422e-06
-8.21385e-08
6.27456e-06
-1.89977e-08
6.26749e-06
4.74552e-09
6.27729e-06
-1.95143e-08
6.26564e-06
2.80867e-08
6.27398e-06
-5.63422e-08
6.26424e-06
2.9922e-08
6.27289e-06
-6.34549e-08
6.26448e-06
2.55955e-08
6.27293e-06
-4.60733e-08
6.26491e-06
8.60604e-09
6.27249e-06
-2.59807e-08
6.26406e-06
1.82175e-09
6.27209e-06
-2.07784e-08
6.26248e-06
2.94401e-09
6.26959e-06
-1.64032e-08
6.26021e-06
7.07546e-09
6.26592e-06
-8.67466e-09
6.25746e-06
1.51553e-08
6.26145e-06
2.8189e-09
6.25472e-06
2.72414e-08
6.25697e-06
1.88411e-08
6.25436e-06
4.20329e-08
6.2619e-06
3.59396e-08
6.25774e-06
6.87304e-08
6.24867e-06
7.62598e-08
6.21382e-06
1.21062e-07
6.16526e-06
1.40012e-07
1.29127e-07
6.13869e-06
6.56817e-06
-2.29502e-08
6.57152e-06
-8.54972e-08
6.56156e-06
-9.0369e-09
6.57848e-06
-1.21732e-08
6.56135e-06
-2.3814e-09
6.57806e-06
1.13723e-08
6.55919e-06
-3.74703e-08
6.57832e-06
1.0791e-08
6.55678e-06
-4.19125e-08
6.5797e-06
2.67896e-09
6.55616e-06
-2.25343e-08
6.57882e-06
-1.40541e-08
6.55673e-06
-3.88917e-09
6.57734e-06
-1.87887e-08
6.55733e-06
-7.75021e-10
6.57617e-06
-1.58897e-08
6.55823e-06
1.5342e-09
6.57435e-06
-9.04204e-09
6.55864e-06
7.03037e-09
6.5696e-06
4.20171e-09
6.55587e-06
1.65432e-08
6.5626e-06
2.05121e-08
6.54852e-06
3.2922e-08
6.55065e-06
3.99038e-08
6.54176e-06
4.48264e-08
6.56941e-06
4.1084e-08
6.60357e-06
4.20959e-08
6.68526e-06
3.93726e-08
6.78533e-06
3.99471e-08
5.81891e-08
6.85626e-06
6.88534e-06
-1.84982e-08
6.87639e-06
-7.65481e-08
6.88956e-06
-2.22039e-08
6.87963e-06
-2.2437e-09
6.89295e-06
-1.57014e-08
6.88009e-06
2.42255e-08
6.88978e-06
-4.71618e-08
6.87989e-06
2.06886e-08
6.88577e-06
-4.77982e-08
6.88188e-06
6.57256e-09
6.88559e-06
-2.62403e-08
6.87989e-06
-8.36235e-09
6.88595e-06
-9.94773e-09
6.87867e-06
-1.15098e-08
6.8848e-06
-6.90537e-09
6.87651e-06
-7.59912e-09
6.88109e-06
-3.04622e-09
6.8729e-06
-8.53073e-10
6.8762e-06
3.73864e-09
6.86949e-06
1.09061e-08
6.87373e-06
1.23019e-08
6.87304e-06
2.12003e-08
6.88594e-06
2.00276e-08
6.89762e-06
2.82273e-08
6.9087e-06
3.37412e-08
6.89547e-06
5.43182e-08
6.86908e-06
6.84838e-08
6.81718e-06
9.12754e-08
6.75171e-06
1.05411e-07
8.13382e-08
6.72856e-06
7.21311e-06
-1.24681e-08
7.21847e-06
-8.19151e-08
7.20055e-06
-4.27998e-09
7.22427e-06
-2.59643e-08
7.20173e-06
6.83884e-09
7.22449e-06
1.4639e-09
7.20059e-06
-2.32628e-08
7.22396e-06
-2.67959e-09
7.1992e-06
-2.30417e-08
7.22385e-06
-1.80719e-08
7.20005e-06
-2.43686e-09
7.22104e-06
-2.93566e-08
7.20139e-06
9.69796e-09
7.21898e-06
-2.90956e-08
7.20223e-06
9.84752e-09
7.21737e-06
-2.27382e-08
7.20267e-06
1.16525e-08
7.21265e-06
-1.08359e-08
7.20016e-06
1.62289e-08
7.20676e-06
4.31e-09
7.19742e-06
2.16396e-08
7.20193e-06
1.66902e-08
7.18982e-06
3.21341e-08
7.19027e-06
2.77793e-08
7.19048e-06
3.35299e-08
7.22208e-06
2.27176e-08
7.26869e-06
2.18705e-08
7.35241e-06
7.55603e-09
7.45591e-06