/*--------------------------------*- C++ -*----------------------------------*\
| =========                 |                                                 |
| \\      /  F ield         | OpenFOAM: The Open Source CFD Toolbox           |
|  \\    /   O peration     | Version:  v2006                                 |
|   \\  /    A nd           | Website:  www.openfoam.com                      |
|    \\/     M anipulation  |                                                 |
\*---------------------------------------------------------------------------*/
FoamFile
{
    version     2.0;
    format      ascii;
    class       volVectorField;
    location    "0.6";
    object      U;
}
// * * * * * * * * * * * * * * * * * * * * * * * * * * * * * * * * * * * * * //

dimensions      [0 1 -1 0 0 0 0];


internalField   nonuniform List<vector> 
26400
(
(0.908958 -0.00470043 0)
(1.09238 0.00432225 0)
(0.915082 -0.00436879 0)
(1.09185 0.00381591 0)
(0.920156 -0.00341766 0)
(1.09191 0.00317685 0)
(0.925637 -0.00339233 0)
(1.09248 0.00283273 0)
(0.929875 -0.00322637 0)
(1.09316 0.00276117 0)
(0.934023 -0.00317442 0)
(1.09329 0.0021827 0)
(0.937726 -0.00240502 0)
(1.09312 0.00206835 0)
(0.941066 -0.00238867 0)
(1.09403 0.00151316 0)
(0.943268 -0.00187903 0)
(1.09529 0.000887172 0)
(0.944841 -0.00198683 0)
(1.09686 0.000469707 0)
(0.944984 -0.00199923 0)
(1.09855 0.00048418 0)
(0.943328 -0.00162955 0)
(1.10081 0.000298054 0)
(0.940308 -0.00119779 0)
(1.10282 0.000300465 0)
(0.935372 -0.000534832 0)
(1.10482 7.86322e-05 0)
(0.926807 0.00119388 0)
(1.10571 0.000441675 0)
(0.915893 -0.00474657 0)
(1.08662 0.00429663 0)
(0.924315 -0.00440296 0)
(1.08608 0.0037915 0)
(0.930991 -0.00345203 0)
(1.08536 0.00315646 0)
(0.937742 -0.00346663 0)
(1.08485 0.00285742 0)
(0.943476 -0.00333469 0)
(1.08413 0.00279288 0)
(0.949348 -0.0032757 0)
(1.08254 0.00220447 0)
(0.954843 -0.00248002 0)
(1.08025 0.00207196 0)
(0.960371 -0.00246542 0)
(1.0783 0.00151822 0)
(0.965421 -0.00195171 0)
(1.07583 0.000896192 0)
(0.970624 -0.00206754 0)
(1.07257 0.000514235 0)
(0.975827 -0.00207317 0)
(1.06789 0.000570299 0)
(0.981363 -0.00169674 0)
(1.06159 0.000417355 0)
(0.987964 -0.00121089 0)
(1.0523 0.000421981 0)
(0.995886 -0.000434476 0)
(1.03939 0.000314425 0)
(1.00449 0.00212559 0)
(1.02015 0.00157883 0)
(0.928159 -0.0048019 0)
(1.07496 0.00424613 0)
(0.939105 -0.00443442 0)
(1.07422 0.0037425 0)
(0.948025 -0.00347344 0)
(1.07232 0.00310825 0)
(0.956372 -0.00351388 0)
(1.0702 0.00284926 0)
(0.9639 -0.00340629 0)
(1.06752 0.00278968 0)
(0.971494 -0.00332646 0)
(1.06372 0.00218269 0)
(0.978616 -0.0024909 0)
(1.05939 0.00201166 0)
(0.985457 -0.00244795 0)
(1.05503 0.00143128 0)
(0.991883 -0.001895 0)
(1.05025 0.000774828 0)
(0.997963 -0.00196082 0)
(1.04495 0.000358116 0)
(1.00367 -0.00189251 0)
(1.03903 0.000354456 0)
(1.00891 -0.00141639 0)
(1.03293 0.000114152 0)
(1.01321 -0.000818089 0)
(1.02654 7.53306e-05 0)
(1.016 1.65139e-05 0)
(1.02025 0.000211265 0)
(1.01583 0.00229133 0)
(1.01436 0.00387272 0)
(0.943606 -0.00484702 0)
(1.05922 0.00415142 0)
(0.955607 -0.00443928 0)
(1.0581 0.00364247 0)
(0.965834 -0.00345245 0)
(1.05528 0.00301205 0)
(0.974752 -0.00350449 0)
(1.05199 0.00277996 0)
(0.982927 -0.00340662 0)
(1.04816 0.00271878 0)
(0.990678 -0.00329473 0)
(1.04336 0.00208761 0)
(0.997514 -0.0024217 0)
(1.03902 0.00188292 0)
(1.00316 -0.00233878 0)
(1.03483 0.00127249 0)
(1.00799 -0.00175376 0)
(1.03102 0.000602921 0)
(1.01162 -0.00178999 0)
(1.02732 0.000174954 0)
(1.01444 -0.00168899 0)
(1.02386 0.000153714 0)
(1.01651 -0.00118233 0)
(1.02095 -6.20538e-05 0)
(1.01719 -0.000551672 0)
(1.01833 -3.70317e-05 0)
(1.01654 0.00028643 0)
(1.0156 0.000317611 0)
(1.01401 0.00260131 0)
(1.01268 0.00603687 0)
(0.959574 -0.00487499 0)
(1.04241 0.00402192 0)
(0.970564 -0.00441323 0)
(1.04108 0.00349817 0)
(0.980287 -0.00339085 0)
(1.0381 0.00287771 0)
(0.988159 -0.00345223 0)
(1.03471 0.00267124 0)
(0.995412 -0.00336534 0)
(1.03101 0.0026146 0)
(1.00178 -0.00322368 0)
(1.02674 0.00196668 0)
(1.00686 -0.0023332 0)
(1.02403 0.00174916 0)
(1.01016 -0.00221603 0)
(1.0215 0.00112237 0)
(1.01261 -0.00161906 0)
(1.01972 0.000467472 0)
(1.0137 -0.00164433 0)
(1.01797 5.02331e-05 0)
(1.01433 -0.0015417 0)
(1.01642 3.64472e-05 0)
(1.01475 -0.00105252 0)
(1.01515 -0.000113357 0)
(1.01422 -0.000487611 0)
(1.01382 3.52549e-05 0)
(1.013 8.83514e-05 0)
(1.01191 0.00122712 0)
(1.01068 0.00173368 0)
(1.00965 0.00854617 0)
(0.973694 -0.00488455 0)
(1.02739 0.00388321 0)
(0.982056 -0.00436182 0)
(1.02625 0.00333696 0)
(0.989687 -0.00330429 0)
(1.02395 0.00273216 0)
(0.995392 -0.00337797 0)
(1.02127 0.00255397 0)
(1.00088 -0.00331033 0)
(1.01841 0.00251375 0)
(1.00544 -0.0031473 0)
(1.01528 0.00185899 0)
(1.00869 -0.00225893 0)
(1.01428 0.00164074 0)
(1.01016 -0.00210747 0)
(1.01327 0.00100083 0)
(1.01103 -0.00150366 0)
(1.01287 0.000365358 0)
(1.01083 -0.00151488 0)
(1.01211 -4.22724e-05 0)
(1.01062 -0.00141636 0)
(1.01128 -5.3622e-05 0)
(1.01063 -0.000932174 0)
(1.01051 -0.000171965 0)
(1.00997 -0.000401376 0)
(1.00948 6.54402e-05 0)
(1.00891 0.000298552 0)
(1.00778 0.00117848 0)
(1.00709 0.00269606 0)
(1.00606 0.00630614 0)
(0.984627 -0.00487801 0)
(1.01581 0.00375648 0)
(0.989759 -0.00429332 0)
(1.01523 0.00318299 0)
(0.994607 -0.00320649 0)
(1.01403 0.00259572 0)
(0.997967 -0.0032944 0)
(1.01226 0.00244477 0)
(1.00178 -0.00325083 0)
(1.01014 0.00242605 0)
(1.005 -0.00307289 0)
(1.00788 0.00176799 0)
(1.00701 -0.00219623 0)
(1.0079 0.00154707 0)
(1.00755 -0.00200521 0)
(1.00773 0.000888601 0)
(1.00767 -0.00139069 0)
(1.00799 0.000263146 0)
(1.00702 -0.00137386 0)
(1.00761 -0.000156594 0)
(1.00656 -0.00125189 0)
(1.00699 -0.000201184 0)
(1.00648 -0.00073075 0)
(1.00635 -0.000322179 0)
(1.00586 -0.00014958 0)
(1.0054 -0.000112382 0)
(1.00488 0.00084333 0)
(1.0039 0.000670157 0)
(1.00327 0.00417709 0)
(1.00253 0.00478527 0)
(0.992226 -0.00485926 0)
(1.00785 0.00365033 0)
(0.994469 -0.00421435 0)
(1.00797 0.0030471 0)
(0.996702 -0.00310414 0)
(1.00788 0.00247307 0)
(0.998181 -0.00320466 0)
(1.00678 0.00234474 0)
(1.00081 -0.00318561 0)
(1.00499 0.00234609 0)
(1.00332 -0.00299842 0)
(1.00313 0.00168764 0)
(1.00466 -0.00213946 0)
(1.00351 0.00146146 0)
(1.00482 -0.00191209 0)
(1.00374 0.000787032 0)
(1.00456 -0.00128934 0)
(1.00431 0.000171064 0)
(1.00374 -0.00125552 0)
(1.0041 -0.000242846 0)
(1.00316 -0.00114324 0)
(1.00353 -0.00027206 0)
(1.00299 -0.000668022 0)
(1.00292 -0.000298201 0)
(1.00233 -0.000175104 0)
(1.00197 0.000129959 0)
(1.00138 0.000329767 0)
(1.00058 0.00194643 0)
(1.00005 0.00266402 0)
(0.999484 0.0102901 0)
(0.997142 -0.00483138 0)
(1.00274 0.00356205 0)
(0.99732 -0.00412815 0)
(1.00349 0.00292823 0)
(0.997528 -0.00299857 0)
(1.00431 0.00235865 0)
(0.997721 -0.00310686 0)
(1.00363 0.00224697 0)
(0.999629 -0.00310962 0)
(1.00185 0.00226375 0)
(1.00184 -0.0029169 0)
(1.00009 0.00160715 0)
(1.00282 -0.00207607 0)
(1.0005 0.00137015 0)
(1.00281 -0.00181439 0)
(1.0009 0.000682538 0)
(1.00229 -0.00118627 0)
(1.00163 7.87307e-05 0)
(1.00138 -0.00113027 0)
(1.00155 -0.000330562 0)
(1.00071 -0.00102488 0)
(1.00096 -0.000354395 0)
(1.00041 -0.000561509 0)
(1.00032 -0.000342574 0)
(0.9997 -8.52731e-05 0)
(0.999277 0.00016351 0)
(0.99879 0.000420091 0)
(0.997894 0.00212065 0)
(0.997934 0.00236667 0)
(0.997055 0.0100881 0)
(1.00028 -0.00479551 0)
(0.999428 0.0034832 0)
(0.99923 -0.00403545 0)
(1.00069 0.00281967 0)
(0.998026 -0.00288905 0)
(1.00223 0.0022451 0)
(0.997357 -0.00299931 0)
(1.00187 0.00214507 0)
(0.998789 -0.00301976 0)
(1.00002 0.00217257 0)
(1.00088 -0.00282439 0)
(0.99822 0.00152021 0)
(1.00166 -0.00199936 0)
(0.998519 0.00126481 0)
(1.00156 -0.0017012 0)
(0.998993 0.000560051 0)
(1.00086 -0.00106161 0)
(0.999823 -4.40531e-05 0)
(0.999884 -0.000970453 0)
(0.999825 -0.000461852 0)
(0.999131 -0.000839072 0)
(0.999225 -0.000513323 0)
(0.998713 -0.000343444 0)
(0.998536 -0.000511993 0)
(0.997916 0.000220551 0)
(0.997422 -0.000140914 0)
(0.996972 0.00140221 0)
(0.99604 0.000817975 0)
(0.996272 0.00396295 0)
(0.995542 0.00273499 0)
(1.00239 -0.00475131 0)
(0.997068 0.00340492 0)
(1.00076 -0.00393563 0)
(0.998713 0.00271454 0)
(0.998591 -0.00277488 0)
(1.00089 0.00212824 0)
(0.997266 -0.00288303 0)
(1.00089 0.00203829 0)
(0.998308 -0.00291917 0)
(0.999012 0.00207597 0)
(1.00032 -0.00272662 0)
(0.997169 0.00143614 0)
(1.00101 -0.00192293 0)
(0.997321 0.00116925 0)
(1.00087 -0.00160363 0)
(0.99781 0.000465523 0)
(1.00005 -0.000971043 0)
(0.998692 -0.000120333 0)
(0.999036 -0.000885145 0)
(0.998767 -0.000493865 0)
(0.998214 -0.000785051 0)
(0.998171 -0.000488901 0)
(0.997677 -0.000357546 0)
(0.997455 -0.000395628 0)
(0.996794 0.000191629 0)
(0.996317 8.67137e-05 0)
(0.995761 0.00140096 0)
(0.994959 0.00103566 0)
(0.994862 0.00408235 0)
(0.9949 0.00173354 0)
(1.004 -0.00469745 0)
(0.995131 0.00331996 0)
(1.00218 -0.00382703 0)
(0.997064 0.0026071 0)
(0.99933 -0.00265471 0)
(0.999864 0.0020046 0)
(0.997399 -0.00275683 0)
(1.0003 0.00192195 0)
(0.998045 -0.00280271 0)
(0.99853 0.00196277 0)
(0.999971 -0.00260845 0)
(0.996663 0.00133226 0)
(1.00064 -0.00181904 0)
(0.996666 0.00104571 0)
(1.00051 -0.0014733 0)
(0.997127 0.000335086 0)
(0.999641 -0.00083498 0)
(0.998019 -0.000255099 0)
(0.998609 -0.000717826 0)
(0.998146 -0.000625099 0)
(0.997745 -0.000608238 0)
(0.997563 -0.000603008 0)
(0.997124 -0.000190636 0)
(0.996835 -0.000459623 0)
(0.996183 0.00032847 0)
(0.995671 0.000146927 0)
(0.995128 0.00129299 0)
(0.99436 0.00168665 0)
(0.994267 0.00398442 0)
(0.994795 0.0061891 0)
(1.00538 -0.00463236 0)
(0.993337 0.00322366 0)
(1.00361 -0.00370847 0)
(0.995488 0.00249501 0)
(1.00023 -0.00252982 0)
(0.998921 0.00187663 0)
(0.997669 -0.00262647 0)
(0.999927 0.0018028 0)
(0.997862 -0.00268128 0)
(0.998374 0.00184785 0)
(0.999659 -0.00249175 0)
(0.996518 0.00123659 0)
(1.00034 -0.00172528 0)
(0.996379 0.000940931 0)
(1.00027 -0.00136892 0)
(0.99678 0.000243328 0)
(0.999418 -0.000752581 0)
(0.99765 -0.000315447 0)
(0.998395 -0.000656727 0)
(0.997809 -0.000617869 0)
(0.99751 -0.000596157 0)
(0.997252 -0.000528849 0)
(0.996832 -0.000235202 0)
(0.996527 -0.00024493 0)
(0.995861 0.000175492 0)
(0.995364 0.000555685 0)
(0.994826 0.000998314 0)
(0.99415 0.00247945 0)
(0.994268 0.00366234 0)
(0.994768 0.0103742 0)
(1.00666 -0.00455396 0)
(0.99157 0.00311211 0)
(1.00508 -0.0035776 0)
(0.993891 0.00237523 0)
(1.00125 -0.00239887 0)
(0.997984 0.00174302 0)
(0.997995 -0.00249027 0)
(0.999663 0.00167624 0)
(0.997666 -0.00254889 0)
(0.998434 0.00172126 0)
(0.999292 -0.00236004 0)
(0.996615 0.00112376 0)
(1.00003 -0.00160873 0)
(0.996331 0.000812816 0)
(1.00006 -0.00123791 0)
(0.996637 0.000126781 0)
(0.999273 -0.000640445 0)
(0.997451 -0.000407893 0)
(0.998286 -0.000553165 0)
(0.997618 -0.000666432 0)
(0.997404 -0.000509056 0)
(0.997088 -0.000541499 0)
(0.9967 -0.000157865 0)
(0.996373 -0.000241543 0)
(0.995722 0.000367987 0)
(0.995231 0.000544426 0)
(0.994736 0.00150396 0)
(0.994132 0.00239575 0)
(0.994714 0.00399463 0)
(0.995071 0.00651866 0)
(1.00789 -0.00446062 0)
(0.989818 0.00298315 0)
(1.00656 -0.00343342 0)
(0.992278 0.00224761 0)
(1.0023 -0.00226372 0)
(0.997057 0.00160705 0)
(0.998305 -0.00235321 0)
(0.999483 0.001549 0)
(0.997399 -0.0024158 0)
(0.998647 0.00159296 0)
(0.998829 -0.00222438 0)
(0.996878 0.00100848 0)
(0.999657 -0.00149319 0)
(0.996436 0.00069287 0)
(0.999827 -0.00112481 0)
(0.996616 3.76889e-05 0)
(0.999145 -0.000553079 0)
(0.997348 -0.000470107 0)
(0.998212 -0.000477089 0)
(0.997512 -0.000685017 0)
(0.997338 -0.000450356 0)
(0.997021 -0.000524063 0)
(0.996606 -9.428e-05 0)
(0.996351 -0.00023999 0)
(0.995619 0.000615479 0)
(0.995281 0.000478745 0)
(0.994675 0.0020824 0)
(0.994263 0.00228996 0)
(0.994438 0.0046114 0)
(0.995533 0.00294678 0)
(1.00905 -0.00435069 0)
(0.988134 0.00283459 0)
(1.00797 -0.00327404 0)
(0.990722 0.00211029 0)
(1.0033 -0.00212288 0)
(0.996189 0.00146741 0)
(0.998541 -0.0022153 0)
(0.999385 0.00142037 0)
(0.997051 -0.00227939 0)
(0.998956 0.00145665 0)
(0.998297 -0.00207984 0)
(0.99722 0.000884226 0)
(0.999249 -0.00136704 0)
(0.996597 0.000562572 0)
(0.999598 -0.0010017 0)
(0.996626 -6.55466e-05 0)
(0.99905 -0.000475262 0)
(0.997257 -0.000515375 0)
(0.998186 -0.000436763 0)
(0.997406 -0.000652509 0)
(0.997332 -0.000458114 0)
(0.996952 -0.00042133 0)
(0.996583 -0.000150593 0)
(0.996336 -6.64612e-06 0)
(0.995599 0.000456286 0)
(0.995337 0.000937387 0)
(0.994729 0.00181019 0)
(0.994432 0.00309181 0)
(0.994519 0.00481849 0)
(0.996214 0.00723652 0)
(1.01008 -0.00422401 0)
(0.986616 0.00266699 0)
(1.00922 -0.00310083 0)
(0.989331 0.00196655 0)
(1.00414 -0.00198205 0)
(0.995459 0.00133322 0)
(0.998656 -0.00208632 0)
(0.99939 0.00129912 0)
(0.996624 -0.00214785 0)
(0.999334 0.0013268 0)
(0.997721 -0.00194671 0)
(0.997608 0.000774252 0)
(0.998819 -0.00126096 0)
(0.9968 0.000461322 0)
(0.999351 -0.000914881 0)
(0.996676 -0.000115497 0)
(0.998941 -0.000473981 0)
(0.99721 -0.000481622 0)
(0.998143 -0.000488602 0)
(0.997346 -0.000528623 0)
(0.997308 -0.000562096 0)
(0.996932 -0.00021635 0)
(0.996552 -0.000303329 0)
(0.996358 0.000322278 0)
(0.995594 0.000207978 0)
(0.995439 0.00152894 0)
(0.994812 0.00143174 0)
(0.994722 0.00394201 0)
(0.994928 0.00489268 0)
(0.996466 0.0117853 0)
(1.01094 -0.0040797 0)
(0.985357 0.00247866 0)
(1.01024 -0.00291124 0)
(0.988199 0.00181275 0)
(1.00478 -0.00183578 0)
(0.994914 0.00119501 0)
(0.998656 -0.00195323 0)
(0.999486 0.00117267 0)
(0.996169 -0.00201266 0)
(0.999737 0.00119275 0)
(0.997164 -0.00180036 0)
(0.997996 0.000642655 0)
(0.998419 -0.00113136 0)
(0.997003 0.000333872 0)
(0.999129 -0.000810105 0)
(0.996737 -0.000189626 0)
(0.998846 -0.000409028 0)
(0.997184 -0.000505601 0)
(0.998108 -0.000432287 0)
(0.99731 -0.000544083 0)
(0.99729 -0.000471855 0)
(0.996937 -0.000261376 0)
(0.996534 -0.00011826 0)
(0.996408 0.000203398 0)
(0.995615 0.000663338 0)
(0.995556 0.00132428 0)
(0.994933 0.0022088 0)
(0.995057 0.0035481 0)
(0.99572 0.0049497 0)
(0.996914 0.00703451 0)
(1.01159 -0.00391973 0)
(0.984401 0.00227138 0)
(1.01101 -0.00270668 0)
(0.987356 0.00164954 0)
(1.00523 -0.00168545 0)
(0.994544 0.00105469 0)
(0.998598 -0.00182404 0)
(0.999627 0.00104807 0)
(0.995759 -0.00188003 0)
(1.00011 0.00105174 0)
(0.996686 -0.00165335 0)
(0.998348 0.000518972 0)
(0.998083 -0.00102791 0)
(0.997195 0.000235339 0)
(0.998944 -0.00074899 0)
(0.996813 -0.000239406 0)
(0.998766 -0.000404473 0)
(0.997187 -0.000506918 0)
(0.998072 -0.000423778 0)
(0.997314 -0.000526632 0)
(0.997266 -0.000412642 0)
(0.99699 -0.000291267 0)
(0.996501 4.20581e-05 0)
(0.99653 7.82605e-05 0)
(0.995612 0.0010614 0)
(0.995776 0.00116921 0)
(0.995016 0.00291718 0)
(0.995298 0.00333821 0)
(0.995396 0.00511069 0)
(0.997486 0.00281086 0)
(1.01207 -0.00375127 0)
(0.983724 0.0020569 0)
(1.01156 -0.00249969 0)
(0.986774 0.00149752 0)
(1.00553 -0.0015498 0)
(0.994308 0.000941216 0)
(0.998534 -0.0017229 0)
(0.999755 0.000961011 0)
(0.995458 -0.00178336 0)
(1.00039 0.000963128 0)
(0.996361 -0.00155888 0)
(0.998585 0.000457045 0)
(0.997889 -0.000967041 0)
(0.997294 0.000197241 0)
(0.998868 -0.000700716 0)
(0.996823 -0.000210501 0)
(0.998771 -0.000416332 0)
(0.997145 -0.00042223 0)
(0.998112 -0.000483795 0)
(0.997278 -0.000386436 0)
(0.997313 -0.000498297 0)
(0.997004 -7.0031e-05 0)
(0.996542 -9.34342e-05 0)
(0.996612 0.000439837 0)
(0.99571 0.000830175 0)
(0.995942 0.00171662 0)
(0.99522 0.00260615 0)
(0.99555 0.00429235 0)
(0.995535 0.00577471 0)
(0.998311 0.00773793 0)
(1.01238 -0.00355204 0)
(0.983309 0.00179535 0)
(1.0119 -0.0022452 0)
(0.986437 0.00128781 0)
(1.00568 -0.00135606 0)
(0.994203 0.000754652 0)
(0.998454 -0.00154707 0)
(0.999884 0.000776221 0)
(0.995241 -0.00159356 0)
(1.0006 0.000759729 0)
(0.996142 -0.00135777 0)
(0.998759 0.000258932 0)
(0.997766 -0.000796381 0)
(0.997374 1.75242e-05 0)
(0.99882 -0.000597794 0)
(0.996852 -0.000306555 0)
(0.998771 -0.000398176 0)
(0.99714 -0.000407354 0)
(0.998133 -0.000527268 0)
(0.997283 -0.000270659 0)
(0.997351 -0.000626554 0)
(0.997051 0.000185559 0)
(0.996595 -0.000314254 0)
(0.996707 0.000985178 0)
(0.995821 0.000460166 0)
(0.996134 0.00245656 0)
(0.99548 0.00206631 0)
(0.995966 0.00533998 0)
(0.996089 0.00622385 0)
(0.998237 0.0130298 0)
(1.01254 -0.00338244 0)
(0.983118 0.00158293 0)
(1.01208 -0.00204567 0)
(0.986302 0.00116437 0)
(1.00574 -0.0012563 0)
(0.9942 0.000695196 0)
(0.998376 -0.00151318 0)
(1.00001 0.000774554 0)
(0.995099 -0.00160316 0)
(1.00076 0.000794303 0)
(0.996009 -0.00141074 0)
(0.998889 0.000364745 0)
(0.997704 -0.000941955 0)
(0.997436 0.000190937 0)
(0.998801 -0.000822663 0)
(0.996889 -9.02124e-05 0)
(0.998783 -0.000654589 0)
(0.99716 -0.000204752 0)
(0.998162 -0.000708087 0)
(0.997309 -0.000144821 0)
(0.997398 -0.000655086 0)
(0.997113 0.00016244 0)
(0.996676 -0.000126142 0)
(0.996813 0.000825157 0)
(0.995972 0.000959604 0)
(0.996312 0.00227331 0)
(0.995786 0.00291524 0)
(0.996463 0.00479013 0)
(0.997186 0.00573943 0)
(0.998525 0.00710774 0)
(1.01261 -0.00314298 0)
(0.983075 0.00126339 0)
(1.01218 -0.0017378 0)
(0.986275 0.000904834 0)
(1.00578 -0.00101401 0)
(0.994218 0.000459378 0)
(0.998362 -0.00127803 0)
(1.0001 0.000531076 0)
(0.995047 -0.0013281 0)
(1.00088 0.000513827 0)
(0.995939 -0.00109245 0)
(0.999012 6.61984e-05 0)
(0.997662 -0.000583815 0)
(0.997527 -0.000155585 0)
(0.998774 -0.000300311 0)
(0.996972 -0.000542446 0)
(0.998775 -8.41369e-06 0)
(0.997229 -0.000806914 0)
(0.998165 7.8524e-05 0)
(0.997396 -0.000897787 0)
(0.997417 0.000324938 0)
(0.997248 -0.00072222 0)
(0.996717 0.00100663 0)
(0.997016 -0.000258377 0)
(0.996096 0.00222396 0)
(0.996627 0.00116713 0)
(0.996 0.0043654 0)
(0.996665 0.00357779 0)
(0.9966 0.00646344 0)
(0.999056 0.00256044 0)
(1.01266 -0.00296885 0)
(0.983072 0.0010409 0)
(1.01227 -0.00153262 0)
(0.986276 0.000784331 0)
(1.00582 -0.000918512 0)
(0.994228 0.000403613 0)
(0.998397 -0.00126663 0)
(1.00014 0.00054168 0)
(0.995069 -0.00138937 0)
(1.00094 0.000600708 0)
(0.995956 -0.00125744 0)
(0.999063 0.000267819 0)
(0.99771 -0.000902203 0)
(0.997555 0.000166674 0)
(0.998826 -0.000870744 0)
(0.996991 1.23846e-05 0)
(0.998842 -0.000814307 0)
(0.997237 5.34748e-05 0)
(0.998249 -0.000962176 0)
(0.997418 0.000289856 0)
(0.997521 -0.00102186 0)
(0.997307 0.000910608 0)
(0.996839 -0.000640133 0)
(0.997128 0.00184894 0)
(0.996312 0.000275909 0)
(0.996841 0.00344844 0)
(0.996354 0.00189188 0)
(0.997038 0.00623219 0)
(0.997025 0.00605274 0)
(0.999284 0.0136235 0)
(1.01267 -0.00272346 0)
(0.983134 0.000720454 0)
(1.01231 -0.001228 0)
(0.986345 0.000547354 0)
(1.00583 -0.000693708 0)
(0.994295 0.00020925 0)
(0.998402 -0.00109618 0)
(1.00021 0.000381623 0)
(0.995087 -0.0012523 0)
(1.001 0.000484693 0)
(0.995979 -0.00115196 0)
(0.999124 0.000163036 0)
(0.997753 -0.000767004 0)
(0.997591 -2.32528e-05 0)
(0.998874 -0.000642361 0)
(0.997038 -0.000263502 0)
(0.998895 -0.000495346 0)
(0.997274 -0.000366545 0)
(0.998309 -0.000501023 0)
(0.997454 -0.000316675 0)
(0.997624 -0.000366791 0)
(0.997376 0.000108052 0)
(0.996995 0.000280365 0)
(0.997244 0.000984737 0)
(0.996528 0.00143059 0)
(0.997012 0.00258664 0)
(0.996735 0.0033162 0)
(0.997678 0.00482702 0)
(0.998525 0.00576578 0)
(0.999474 0.00721575 0)
(1.01267 -0.00253668 0)
(0.983233 0.000475931 0)
(1.01236 -0.0010039 0)
(0.986418 0.000404815 0)
(1.00587 -0.000569568 0)
(0.994328 0.000142595 0)
(0.998471 -0.00102638 0)
(1.00026 0.000344787 0)
(0.995144 -0.00115446 0)
(1.00107 0.00038632 0)
(0.995995 -0.000988484 0)
(0.999231 7.83402e-05 0)
(0.997759 -0.000579148 0)
(0.997702 -0.000139887 0)
(0.998864 -0.000285651 0)
(0.997147 -0.000515267 0)
(0.998891 1.52006e-05 0)
(0.997376 -0.000804885 0)
(0.998317 0.000252348 0)
(0.997579 -0.000966977 0)
(0.99765 0.000724129 0)
(0.997555 -0.000887467 0)
(0.997059 0.00161419 0)
(0.997479 -0.000385945 0)
(0.996703 0.00296271 0)
(0.997367 0.00115631 0)
(0.996931 0.00523134 0)
(0.997718 0.00335302 0)
(0.997666 0.00643462 0)
(1.00002 0.00094064 0)
(1.01274 -0.00226266 0)
(0.983257 0.000114881 0)
(1.01247 -0.000679092 0)
(0.986431 0.000148126 0)
(1.00597 -0.000350642 0)
(0.994323 -5.55429e-05 0)
(0.998581 -0.000881295 0)
(1.00027 0.000195656 0)
(0.99525 -0.00110815 0)
(1.00108 0.000367641 0)
(0.996101 -0.00110001 0)
(0.999245 0.000167508 0)
(0.997875 -0.000881913 0)
(0.997705 0.000143127 0)
(0.998971 -0.000951524 0)
(0.997157 0.000122706 0)
(0.999001 -0.00104398 0)
(0.99739 0.00032466 0)
(0.998428 -0.00125037 0)
(0.997617 0.000682303 0)
(0.997773 -0.00121024 0)
(0.997631 0.00126599 0)
(0.997208 -0.000682958 0)
(0.997622 0.00213158 0)
(0.996956 0.000354871 0)
(0.997636 0.00366612 0)
(0.997342 0.00236789 0)
(0.9981 0.00686611 0)
(0.997974 0.00729816 0)
(1.00014 0.013563 0)
(1.01278 -0.00212047 0)
(0.98333 -5.89993e-05 0)
(1.01254 -0.000559591 0)
(0.986515 0.00011992 0)
(1.00599 -0.000326321 0)
(0.994395 -7.39555e-06 0)
(0.998624 -0.000953493 0)
(1.00033 0.000300236 0)
(0.995327 -0.00120179 0)
(1.00112 0.000459702 0)
(0.996184 -0.00115257 0)
(0.999277 0.000269866 0)
(0.997982 -0.000921808 0)
(0.997714 0.000181486 0)
(0.999076 -0.000917261 0)
(0.997159 0.000177113 0)
(0.999112 -0.00102673 0)
(0.99737 0.000400078 0)
(0.998549 -0.00126216 0)
(0.997604 0.000822594 0)
(0.99792 -0.00126616 0)
(0.997667 0.00151215 0)
(0.997393 -0.000784153 0)
(0.997704 0.00252935 0)
(0.997202 0.00014369 0)
(0.997847 0.00390882 0)
(0.997886 0.00179554 0)
(0.999041 0.00658023 0)
(0.999662 0.00664064 0)
(0.999525 0.0135131 0)
(1.01272 -0.00181667 0)
(0.983513 -0.000455544 0)
(1.01256 -0.000204269 0)
(0.986662 -0.000195377 0)
(1.00601 -1.90678e-05 0)
(0.994491 -0.000308694 0)
(0.998681 -0.000670547 0)
(1.00043 1.42039e-06 0)
(0.995377 -0.000778228 0)
(1.00123 -4.84432e-05 0)
(0.996218 -0.000517164 0)
(0.999402 -0.00042935 0)
(0.998002 -4.15801e-05 0)
(0.997847 -0.000817756 0)
(0.999089 0.000282981 0)
(0.997291 -0.00119491 0)
(0.999131 0.000583643 0)
(0.997499 -0.00135674 0)
(0.998586 0.000753672 0)
(0.997747 -0.00130679 0)
(0.997992 0.00109923 0)
(0.997837 -0.000931577 0)
(0.99752 0.00178447 0)
(0.997916 -7.58052e-05 0)
(0.99739 0.00286722 0)
(0.998114 0.00115195 0)
(0.998164 0.0039544 0)
(0.999485 0.00163607 0)
(1.00015 0.00341304 0)
(1.00003 0.000108692 0)
(1.01266 -0.00166025 0)
(0.983693 -0.000615042 0)
(1.01264 -0.000118556 0)
(0.986751 -9.28949e-05 0)
(1.00613 -0.000108125 0)
(0.994509 -5.92841e-05 0)
(0.99883 -0.000890673 0)
(1.00048 0.000237883 0)
(0.995473 -0.00111852 0)
(1.00134 0.000330254 0)
(0.996239 -0.000884842 0)
(0.999549 -8.70203e-05 0)
(0.998001 -0.000445606 0)
(0.997981 -0.000435801 0)
(0.999088 -0.000159578 0)
(0.997426 -0.000812941 0)
(0.999167 0.000135669 0)
(0.997615 -0.000957291 0)
(0.998655 0.000287528 0)
(0.997884 -0.000858959 0)
(0.998101 0.000685536 0)
(0.998027 -0.000400546 0)
(0.997693 0.0014641 0)
(0.998175 0.000544873 0)
(0.997618 0.00255148 0)
(0.998345 0.00176371 0)
(0.998123 0.003323 0)
(0.999082 0.0015221 0)
(0.99927 0.001825 0)
(1.00183 0.000181963 0)
(1.01268 -0.00146998 0)
(0.983781 -0.000874661 0)
(1.01279 3.9979e-05 0)
(0.986778 -0.00030926 0)
(1.00626 0.000117264 0)
(0.994504 -0.000304629 0)
(0.99895 -0.00067846 0)
(1.0005 4.72571e-05 0)
(0.99558 -0.000833594 0)
(1.00139 3.04534e-05 0)
(0.996312 -0.000600755 0)
(0.999605 -0.00025096 0)
(0.998073 -0.000299441 0)
(0.998033 -0.000481803 0)
(0.999157 -9.94501e-05 0)
(0.997477 -0.000659581 0)
(0.999247 -2.93378e-05 0)
(0.997666 -0.000604121 0)
(0.998759 -4.70675e-05 0)
(0.997973 -0.000355871 0)
(0.998247 0.000243167 0)
(0.998167 0.000218039 0)
(0.997898 0.000933828 0)
(0.998353 0.00112808 0)
(0.99786 0.00185647 0)
(0.998506 0.00231461 0)
(0.998248 0.00307897 0)
(0.999244 0.00382611 0)
(0.999962 0.00483074 0)
(1.00407 0.00610853 0)
(1.01269 -0.00113833 0)
(0.98391 -0.00117587 0)
(1.01292 0.00021634 0)
(0.986904 -0.000366469 0)
(1.00635 0.000150864 0)
(0.994618 -0.000232605 0)
(0.999073 -0.000780197 0)
(1.00065 0.000169343 0)
(0.995669 -0.00116266 0)
(1.00154 0.000377891 0)
(0.996399 -0.00116081 0)
(0.999749 0.000262153 0)
(0.998158 -0.000983629 0)
(0.998158 0.000166039 0)
(0.999246 -0.00096451 0)
(0.997581 0.000252722 0)
(0.999355 -0.00108871 0)
(0.997754 0.000492773 0)
(0.998874 -0.00114645 0)
(0.998084 0.000865542 0)
(0.998386 -0.000825808 0)
(0.998326 0.00149812 0)
(0.998064 -8.98312e-05 0)
(0.998552 0.00229815 0)
(0.998083 0.000815567 0)
(0.99884 0.00342389 0)
(0.998728 0.00238518 0)
(0.999792 0.00634426 0)
(1.00017 0.00735541 0)
(1.00317 0.0124549 0)
(1.01269 -0.00126245 0)
(0.984055 -0.0010232 0)
(1.01301 -5.643e-05 0)
(0.987023 -3.71788e-05 0)
(1.00635 -0.000100924 0)
(0.994687 8.69288e-05 0)
(0.999062 -0.000942846 0)
(1.00068 0.000362074 0)
(0.995718 -0.00120363 0)
(1.00155 0.000444831 0)
(0.996447 -0.00100995 0)
(0.999753 0.000102582 0)
(0.998212 -0.000702565 0)
(0.998145 -0.000161791 0)
(0.999302 -0.000567475 0)
(0.997557 -0.000300064 0)
(0.999391 -0.00049659 0)
(0.997745 -0.000232799 0)
(0.998913 -0.000408605 0)
(0.998114 0.000117726 0)
(0.998455 2.74349e-07 0)
(0.998395 0.000805573 0)
(0.998157 0.000807244 0)
(0.998627 0.00175339 0)
(0.99823 0.00182918 0)
(0.998989 0.00287886 0)
(0.999232 0.00296431 0)
(1.00091 0.00380198 0)
(1.00213 0.00387228 0)
(1.0031 0.0050855 0)
(1.01261 -0.000593167 0)
(0.984279 -0.0016811 0)
(1.01312 0.000446722 0)
(0.987175 -0.000649976 0)
(1.00651 0.000469439 0)
(0.994782 -0.000572464 0)
(0.999278 -0.000288486 0)
(1.00084 -0.000383592 0)
(0.995856 -0.00036207 0)
(1.00178 -0.000507739 0)
(0.996516 4.64588e-05 0)
(1.00002 -0.00101501 0)
(0.998266 0.000543169 0)
(0.998409 -0.00142297 0)
(0.999363 0.000848203 0)
(0.997821 -0.00162461 0)
(0.999509 0.000975515 0)
(0.997989 -0.00157549 0)
(0.999093 0.00109023 0)
(0.998381 -0.00122888 0)
(0.998698 0.0014331 0)
(0.99872 -0.000512727 0)
(0.998466 0.00221109 0)
(0.999016 0.000623818 0)
(0.998567 0.00330904 0)
(0.999357 0.00178039 0)
(0.999164 0.00399159 0)
(1.00021 0.00128586 0)
(1.00071 0.00202558 0)
(1.00441 -0.00047301 0)
(1.01265 -0.00114647 0)
(0.984339 -0.000875471 0)
(1.01332 -0.000409516 0)
(0.987179 0.000449257 0)
(1.00663 -0.000572 0)
(0.994727 0.000680963 0)
(0.99937 -0.00144644 0)
(1.00081 0.000825909 0)
(0.995948 -0.00170785 0)
(1.00179 0.000825632 0)
(0.996574 -0.00143513 0)
(1.00005 0.000448805 0)
(0.998327 -0.0010073 0)
(0.998435 0.000194824 0)
(0.999458 -0.000806172 0)
(0.997829 0.00017084 0)
(0.999615 -0.000794036 0)
(0.998025 0.00030717 0)
(0.999224 -0.000659586 0)
(0.99846 0.000638687 0)
(0.998878 -0.000223046 0)
(0.998877 0.00132118 0)
(0.998722 0.00064341 0)
(0.999239 0.00235809 0)
(0.998837 0.00184602 0)
(0.999509 0.00354697 0)
(0.999305 0.0029125 0)
(1.00054 0.00439223 0)
(1.00183 0.00441253 0)
(1.00657 0.00768504 0)
(1.01267 -0.000240743 0)
(0.984454 -0.00199558 0)
(1.01349 0.000379895 0)
(0.987265 -0.000678371 0)
(1.00673 0.000473014 0)
(0.994775 -0.000477696 0)
(0.999478 -0.000187551 0)
(1.0009 -0.000402426 0)
(0.996034 -0.000352918 0)
(1.0019 -0.000490055 0)
(0.99664 -3.05315e-05 0)
(1.00017 -0.000879514 0)
(0.998407 0.000406564 0)
(0.998543 -0.00109128 0)
(0.999545 0.000505679 0)
(0.997936 -0.00113316 0)
(0.99973 0.000519846 0)
(0.998142 -0.000965749 0)
(0.999369 0.000634357 0)
(0.998622 -0.000546253 0)
(0.999081 0.00102778 0)
(0.9991 0.000234568 0)
(0.998979 0.00179581 0)
(0.999536 0.00128033 0)
(0.999171 0.00295767 0)
(0.999882 0.00288543 0)
(0.999698 0.00492746 0)
(1.00096 0.00523352 0)
(1.00228 0.00672337 0)
(1.00709 0.00519399 0)
(1.01269 -0.000763392 0)
(0.984571 -0.000805513 0)
(1.01365 -0.000677678 0)
(0.987404 0.000583573 0)
(1.00682 -0.000851281 0)
(0.994888 0.001126 0)
(0.999544 -0.00182226 0)
(1.00101 0.00128844 0)
(0.996116 -0.00221123 0)
(1.00202 0.00131501 0)
(0.9967 -0.00194792 0)
(1.0003 0.000931412 0)
(0.998471 -0.00149307 0)
(0.998632 0.000707533 0)
(0.999623 -0.00135815 0)
(0.998013 0.000700187 0)
(0.999817 -0.00124066 0)
(0.998233 0.000807516 0)
(0.999485 -0.000928648 0)
(0.998744 0.00115993 0)
(0.999246 -0.000415699 0)
(0.999281 0.0018287 0)
(0.999194 0.0004419 0)
(0.999798 0.00280346 0)
(0.99954 0.00156933 0)
(1.00041 0.00425039 0)
(1.00036 0.00392605 0)
(1.00144 0.00820155 0)
(1.00191 0.00957429 0)
(1.00556 0.0137382 0)
(1.01265 -0.000308438 0)
(0.984662 -0.00161904 0)
(1.01364 -1.3427e-05 0)
(0.987452 -0.000363356 0)
(1.00666 4.55322e-05 0)
(0.994822 9.75217e-05 0)
(0.999343 -0.000655255 0)
(1.00092 0.000150123 0)
(0.995951 -0.000898703 0)
(1.00193 7.31173e-05 0)
(0.996554 -0.000558973 0)
(1.0002 -0.00040981 0)
(0.998352 -0.000103235 0)
(0.998518 -0.000602402 0)
(0.999507 -5.38385e-05 0)
(0.997918 -0.00051472 0)
(0.999692 6.94735e-06 0)
(0.998181 -0.000317601 0)
(0.999383 0.000239714 0)
(0.99872 0.000141988 0)
(0.999196 0.000680464 0)
(0.999309 0.000881839 0)
(0.999222 0.0015528 0)
(0.999854 0.00205869 0)
(0.99963 0.0027682 0)
(1.0007 0.00323619 0)
(1.00125 0.00374004 0)
(1.00326 0.00387046 0)
(1.00465 0.00414069 0)
(1.00467 0.00360586 0)
(1.01253 -0.000198177 0)
(0.984962 -0.0013562 0)
(1.01382 -0.000242884 0)
(0.987764 -0.000212659 0)
(1.0069 -0.000107786 0)
(0.995126 0.000255179 0)
(0.999593 -0.000781379 0)
(1.00125 0.000237137 0)
(0.996171 -0.000928989 0)
(1.00233 -6.65925e-07 0)
(0.996689 -0.000501261 0)
(1.00063 -0.000444273 0)
(0.998499 -6.7292e-05 0)
(0.998894 -0.000612533 0)
(0.999703 2.12142e-05 0)
(0.99827 -0.000548099 0)
(0.999926 0.000128154 0)
(0.998524 -0.000328666 0)
(0.999673 0.000367657 0)
(0.999086 0.00019944 0)
(0.999538 0.000768431 0)
(0.999761 0.000894921 0)
(0.999663 0.00144776 0)
(1.00042 0.00169551 0)
(1.00006 0.00223166 0)
(1.00095 0.00271326 0)
(1.00065 0.00365318 0)
(1.00167 0.00434174 0)
(1.00167 0.00536856 0)
(1.00508 0.00593595 0)
(1.01264 -0.000531487 0)
(0.984824 -0.000776123 0)
(1.01389 -0.000600058 0)
(0.987603 0.000209836 0)
(1.00681 -0.000580171 0)
(0.994848 0.000881088 0)
(0.999433 -0.00135878 0)
(1.00099 0.000824415 0)
(0.996018 -0.00145338 0)
(1.00209 0.000416571 0)
(0.99658 -0.00100433 0)
(1.00038 3.75858e-05 0)
(0.998416 -0.000604109 0)
(0.998643 -6.76276e-05 0)
(0.999618 -0.000518281 0)
(0.998059 -1.42132e-06 0)
(0.999847 -0.000381787 0)
(0.998368 0.000256896 0)
(0.999637 -9.49895e-05 0)
(0.998966 0.000806874 0)
(0.999527 0.000346153 0)
(0.99966 0.00136085 0)