/*--------------------------------*- C++ -*----------------------------------*\
| =========                 |                                                 |
| \\      /  F ield         | OpenFOAM: The Open Source CFD Toolbox           |
|  \\    /   O peration     | Version:  v2006                                 |
|   \\  /    A nd           | Website:  www.openfoam.com                      |
|    \\/     M anipulation  |                                                 |
\*---------------------------------------------------------------------------*/
FoamFile
{
    version     2.0;
    format      ascii;
    class       volScalarField;
    location    "0.4";
    object      p;
}
// * * * * * * * * * * * * * * * * * * * * * * * * * * * * * * * * * * * * * //

dimensions      [0 2 -2 0 0 0 0];


internalField   nonuniform List<scalar> 
26400
(
1.7908e-08
0.00234593
0.00209994
0.00261696
0.00187478
0.00202763
0.00204561
0.00234159
0.00186186
0.00234475
0.00220917
0.00234429
0.00212715
0.00252945
0.00236312
0.0025641
0.00236199
0.00269568
0.00261131
0.00286657
0.00274611
0.00314336
0.00320985
0.00371723
0.00394754
0.00469528
0.00542413
0.00701285
0.00886899
0.0115338
-7.94694e-07
0.00234831
0.00210198
0.00261315
0.00187325
0.00202842
0.00204774
0.00234211
0.00186245
0.00234427
0.00221051
0.00234461
0.00212848
0.00252869
0.00236385
0.00256262
0.00236291
0.00269409
0.00261288
0.00286353
0.00274856
0.00313775
0.00321463
0.00370999
0.00396099
0.00468133
0.00547013
0.00689723
0.00885736
0.0108511
-6.88019e-07
0.00235257
0.00210347
0.00260787
0.0018729
0.00202943
0.00205057
0.00234258
0.00186371
0.00234361
0.00221303
0.00234477
0.00213067
0.00252692
0.00236579
0.00255991
0.00236509
0.00269175
0.00261586
0.00285951
0.00275284
0.00313087
0.00322102
0.00370204
0.00396892
0.00466824
0.00547405
0.00681442
0.00874619
0.0101978
1.32642e-06
0.00235702
0.00210418
0.00260339
0.00187353
0.00202964
0.00205369
0.00234336
0.00186538
0.0023431
0.00221591
0.00234491
0.00213327
0.00252492
0.00236865
0.0025567
0.00236779
0.00268924
0.00261931
0.00285472
0.00275781
0.00312206
0.00322848
0.00369123
0.0039847
0.00464833
0.0054814
0.00671855
0.00852615
0.00964868
5.80727e-06
0.00236122
0.00210445
0.00259953
0.0018745
0.00202907
0.00205744
0.00234432
0.00186719
0.00234246
0.00221892
0.00234484
0.00213615
0.00252257
0.0023721
0.00255282
0.00237066
0.00268602
0.00262282
0.00284869
0.00276286
0.00311154
0.00323552
0.00367977
0.00399102
0.00463431
0.00546372
0.00663812
0.00818399
0.00919895
1.30808e-05
0.00236487
0.00210416
0.00259573
0.00187563
0.00202786
0.00206183
0.00234503
0.00186897
0.00234144
0.00222199
0.00234421
0.00213919
0.00251965
0.00237602
0.00254811
0.00237375
0.00268168
0.00262645
0.00284135
0.00276797
0.00310092
0.00324134
0.00366952
0.00398929
0.00462748
0.00541944
0.00656777
0.00781772
0.00865342
2.30318e-05
0.0023676
0.00210324
0.00259181
0.00187682
0.00202594
0.00206679
0.00234532
0.00187066
0.00233989
0.00222512
0.00234279
0.00214243
0.00251615
0.00238052
0.00254254
0.00237736
0.00267611
0.00263065
0.00283236
0.00277364
0.00308823
0.00324907
0.00365357
0.00399694
0.0046
0.00539856
0.00641259
0.00765251
0.00824355
3.51904e-05
0.00236931
0.00210184
0.00258763
0.00187795
0.00202333
0.00207233
0.00234516
0.00187234
0.0023378
0.00222845
0.00234061
0.00214605
0.00251213
0.0023857
0.00253621
0.0023816
0.00266945
0.00263557
0.00282199
0.00277962
0.00307416
0.00325672
0.00363614
0.00399856
0.00457608
0.00535412
0.00626071
0.00732966
0.00780013
4.90038e-05
0.00237017
0.00210017
0.00258307
0.00187907
0.00202018
0.00207845
0.00234459
0.00187416
0.00233521
0.00223217
0.0023377
0.0021502
0.00250759
0.00239159
0.00252915
0.00238648
0.00266176
0.00264107
0.00281094
0.00278537
0.00306087
0.00325932
0.00363411
0.00398044
0.00457763
0.00525571
0.00616997
0.00670338
0.00730322
6.40142e-05
0.00237045
0.00209841
0.0025781
0.00188033
0.00201659
0.00208518
0.00234363
0.00187629
0.0023321
0.00223646
0.00233402
0.00215504
0.00250241
0.00239831
0.00252116
0.00239225
0.0026529
0.0026473
0.00279818
0.00279158
0.00304555
0.00326374
0.00361556
0.00397308
0.00454964
0.00519332
0.00605017
0.0063889
0.00675311
7.9919e-05
0.00237035
0.00209675
0.00257269
0.00188186
0.00201259
0.00209251
0.00234226
0.00187885
0.00232843
0.00224144
0.00232952
0.00216062
0.00249656
0.00240578
0.00251225
0.00239866
0.00264308
0.00265396
0.00278463
0.00279717
0.00302955
0.00326765
0.00358261
0.00397277
0.00449096
0.00516859
0.00589253
0.00646623
0.00613783
9.6564e-05
0.00236998
0.00209535
0.00256679
0.00188379
0.0020082
0.00210045
0.00234042
0.00188196
0.00232412
0.00224722
0.00232411
0.00216703
0.00248995
0.00241402
0.00250245
0.00240592
0.00263234
0.00266087
0.00277059
0.00280155
0.00301385
0.00326806
0.00356316
0.00395901
0.00444341
0.0051133
0.00572585
0.00631118
0.0054115
0.000113898
0.00236936
0.00209434
0.00256033
0.00188618
0.00200337
0.00210904
0.00233802
0.00188569
0.00231908
0.00225387
0.00231774
0.00217427
0.00248262
0.00242289
0.00249189
0.00241341
0.00262108
0.00266752
0.00275653
0.00280379
0.00299951
0.00326295
0.00354873
0.00393006
0.0044087
0.00501878
0.0055542
0.00585182
0.00497583
0.000131934
0.00236844
0.00209381
0.00255325
0.0018891
0.00199808
0.00211832
0.00233499
0.00189011
0.00231325
0.00226142
0.00231042
0.00218227
0.0024747
0.00243213
0.00248075
0.00242077
0.00261007
0.00267273
0.00274386
0.00280258
0.00298722
0.00324602
0.0035387
0.00389125
0.00436735
0.00490976
0.00537718
0.00517681
0.00438376
0.000150727
0.00236711
0.00209386
0.00254546
0.00189262
0.00199223
0.00212834
0.00233124
0.00189528
0.00230654
0.00226989
0.00230211
0.00219101
0.00246624
0.00244173
0.00246919
0.00242785
0.00259933
0.0026774
0.00273124
0.00280016
0.00297223
0.0032409
0.00350723
0.00385987
0.00429105
0.00480355
0.00520956
0.00524493
0.00398256
0.000170351
0.00236524
0.00209457
0.00253689
0.0018968
0.00198578
0.00213914
0.0023267
0.00190125
0.00229893
0.00227927
0.00229288
0.00220028
0.00245744
0.00245138
0.00245781
0.00243412
0.00258932
0.00268302
0.0027193
0.00279548
0.0029563
0.00323677
0.00347149
0.0038229
0.00420162
0.00468192
0.00500119
0.00508156
0.00326976
0.000190898
0.00236267
0.00209602
0.00252748
0.00190168
0.0019787
0.00215074
0.00232133
0.00190796
0.00229048
0.00228936
0.00228306
0.00220981
0.0024487
0.00246008
0.00244744
0.00243867
0.00258134
0.002682
0.00271205
0.00278449
0.00294612
0.00319961
0.0034531
0.0037582
0.00412754
0.00451839
0.0047454
0.00456193
0.00299737
0.000212503
0.00235922
0.00209824
0.0025172
0.00190734
0.00197087
0.00216319
0.00231514
0.00191535
0.00228126
0.00230002
0.00227264
0.00221945
0.00244056
0.00246767
0.00243841
0.00244101
0.00257516
0.00267777
0.00270832
0.0027704
0.00293948
0.00316167
0.00342713
0.00368355
0.00404247
0.00434717
0.00445259
0.00370785
0.00248686
0.000235274
0.00235471
0.00210131
0.00250588
0.00191391
0.00196225
0.00217642
0.00230813
0.00192342
0.00227126
0.00231129
0.0022619
0.00222857
0.00243284
0.00247455
0.00243126
0.00244151
0.00256985
0.00267542
0.00269635
0.00275989
0.00291162
0.00314916
0.0033721
0.00361692
0.00390961
0.00418894
0.00429357
0.00394793
0.00214642
0.000259319
0.00234889
0.00210527
0.0024936
0.00192124
0.00195305
0.00219024
0.00230052
0.00193171
0.00226095
0.00232224
0.00225201
0.00223635
0.00242777
0.00247595
0.00242632
0.00244004
0.00256558
0.0026713
0.00268515
0.00275032
0.00288599
0.00313052
0.00330789
0.00353966
0.00376022
0.00400777
0.00405873
0.00382217
0.00134483
0.000284993
0.00234152
0.00211006
0.00248031
0.00192952
0.00194285
0.00220498
0.00229215
0.00194061
0.00225021
0.00233355
0.00224159
0.00224438
0.00242053
0.00248529
0.00242349
0.00243544
0.00256295
0.00266938
0.00267918
0.00272864
0.00287084
0.00308304
0.00326017
0.00343671
0.00362344
0.00376198
0.00370688
0.00325349
0.0014001
0.000312056
0.00233253
0.0021157
0.0024659
0.00193883
0.00193212
0.00221973
0.00228392
0.00194851
0.00224019
0.00234294
0.00223435
0.00224759
0.00242259
0.00247373
0.00242783
0.00242453
0.00256649
0.00264352
0.00268332
0.00268773
0.00286756
0.00300821
0.00321367
0.00331458
0.00348791
0.00350202
0.00326952
0.00218927
0.00103995
0.000341182
0.00232131
0.00212231
0.00245051
0.00194883
0.00192103
0.00223476
0.00227555
0.00195623
0.00223041
0.00235177
0.00222762
0.00225161
0.00241856
0.0024903
0.00242205
0.00242536
0.0025521
0.00264761
0.00263358
0.00268881
0.0028016
0.0029923
0.00311242
0.00320978
0.00326297
0.00329455
0.00315407
0.00278042
0.000793395
0.000372438
0.00230789
0.00212942
0.00243414
0.00195984
0.00190908
0.00225006
0.00226733
0.00196421
0.00222124
0.00236143
0.00222154
0.00225519
0.00241513
0.00249288
0.00241795
0.00242196
0.00254253
0.00264246
0.0026188
0.00267245
0.00276805
0.00294177
0.00302628
0.00308282
0.00307551
0.00303244
0.00281977
0.00242276
0.000525687
0.000405423
0.00229233
0.00213733
0.00241657
0.00197181
0.00189708
0.00226429
0.00226072
0.00196716
0.00221546
0.00236111
0.00222615
0.00224406
0.00242875
0.00247531
0.00243022
0.0024031
0.00255565
0.00260208
0.00263222
0.00260202
0.00276907
0.00283083
0.00296465
0.00292583
0.00294221
0.00272116
0.00223889
0.00097503
0.000223221
0.000441082
0.00227378
0.00214567
0.00239856
0.00198415
0.00188654
0.00227814
0.00225487
0.00197083
0.00220977
0.00236473
0.00222477
0.00224489
0.00242124
0.00249166
0.00240577
0.00241515
0.00252407
0.00261749
0.00257255
0.00260181
0.00268042
0.00281015
0.00282707
0.00278631
0.00267936
0.00254067
0.00229558
0.00187516
-1.80415e-05
0.000479767
0.00225256
0.00215405
0.00237907
0.00199758
0.00187441
0.00229216
0.00225003
0.00197463
0.00220473
0.00236691
0.00222403
0.00224157
0.00242539
0.00249244
0.00239426
0.00242154
0.00250833
0.00263045
0.00254268
0.00259204
0.00261365
0.00276564
0.00269994
0.00263666
0.00242062
0.00222214
0.00192197
0.00162811
-0.000178047
0.000519743
0.00222937
0.00216267
0.00235922
0.00201123
0.00186317
0.00229461
0.00224936
0.00196853
0.00220519
0.00236125
0.0022461
0.00220641
0.00246124
0.00245982
0.00242698
0.00237137
0.0025466
0.00255563
0.00257134
0.00249349
0.00260315
0.00264027
0.00264156
0.00246269
0.0022271
0.00174717
0.000996823
-3.50857e-05
0.000300158
0.000564005
0.00220271
0.0021698
0.00233886
0.00202768
0.00185084
0.00230704
0.00224824
0.00197112
0.00220011
0.00236893
0.00223737
0.00221141
0.00245568
0.00247286
0.00241427
0.00237499
0.00253742
0.00254705
0.00254867
0.00246098
0.00254883
0.00256342
0.00253984
0.00232688
0.00206527
0.00151879
0.000667581
-0.000459191
-5.19607e-05
0.000610718
0.00217436
0.00217743
0.00231178
0.00204297
0.00184099
0.00231815
0.00224659
0.00196618
0.00219559
0.00237681
0.00222425
0.00222663
0.00243659
0.00249766
0.00238352
0.00239376
0.00249741
0.00255703
0.00249297
0.00243968
0.00245748
0.00248956
0.00239382
0.00219946
0.00194094
0.00164865
0.00119805
0.000570572
-0.00158345
0.00065738
0.00214629
0.00218234
0.00229662
0.00204947
0.0018299
0.00232406
0.00225748
0.00195446
0.00219721
0.00237897
0.00221626
0.00223615
0.00242467
0.00251147
0.00237471
0.00239403
0.00248246
0.00255267
0.00245198
0.00239897
0.00238379
0.00239615
0.00227288
0.002063
0.00183683
0.0016176
0.00112951
1.87495e-05
-0.00379116
0.000712477
0.0021114
0.0021884
0.00226585
0.00209489
0.00181574
0.00233621
0.00225772
0.00195261
0.00220473
0.00237557
0.00221955
0.00223448
0.00242885
0.0025038
0.00238488
0.00236228
0.00248538
0.00252466
0.00242655
0.00233669
0.00232102
0.00230196
0.00215804
0.00191308
0.0015972
0.00119824
0.000637058
-0.000216022
-0.00285235
0.0007608
0.00208699
0.00218581
0.00224635
0.00206514
0.00181752
0.00233159
0.00228502
0.00190828
0.00223175
0.00233526
0.00225003
0.00220595
0.00245551
0.00248006
0.00241321
0.00232827
0.00249372
0.00248745
0.00239006
0.0022558
0.00224771
0.00219906
0.00205112
0.00175415
0.00141457
0.000682287
-0.000511581
-0.00219982
-0.00300043
0.000821669
0.00204751
0.00219423
0.00221582
0.00211563
0.00179879
0.0023451
0.00228124
0.00193023
0.00220966
0.00236328
0.00222024
0.00223452
0.00242731
0.00250863
0.00238573
0.00234018
0.00245871
0.00248219
0.00232807
0.00219568
0.00215283
0.00207969
0.00187836
0.00159339
0.0012675
0.000890401
0.000389568
-0.00057301
-0.00382539
0.000874824
0.00202527
0.0021809
0.00219648
0.00209819
0.00180617
0.00233508
0.00230715
0.00191102
0.00220461
0.00237512
0.00221117
0.00224092
0.00243167
0.00250141
0.00239142
0.00233191
0.00243518
0.00245951
0.00228915
0.00211402
0.00204125
0.00193851
0.00170663
0.00143158
0.00116009
0.000869235
0.000171018
-0.00153941
-0.00597117
0.000930503
0.00199667
0.00218669
0.00217043
0.00210961
0.00181337
0.00232386
0.00232376
0.00191344
0.00219047
0.00238854
0.00219546
0.00224224
0.00243793
0.00248932
0.00239518
0.00232486
0.00240487
0.0024276
0.00224647
0.00203376
0.00192014
0.0017922
0.00152647
0.00120179
0.000894447
0.000577581
-0.000142652
-0.00189402
-0.00637806
0.00100079
0.00194162
0.00221182
0.0021506
0.00211052
0.00182523
0.00232311
0.00236125
0.0019099
0.00217385
0.00240598
0.0021873
0.00223719
0.00244392
0.00248444
0.00239031
0.00232164
0.00237281
0.00238463
0.0021983
0.00195301
0.00179462
0.00164452
0.00133539
0.000905616
0.000437148
-2.83713e-05
-0.000601056
-0.00153771
-0.00479491
0.00104112
0.00197293
0.002149
0.00214154
0.00206359
0.00186354
0.00226144
0.00241308
0.00189421
0.00216729
0.00239952
0.00221194
0.00220288
0.00246091
0.00248258
0.00237724
0.00231331
0.00234713
0.00234012
0.00214275
0.00186588
0.00166435
0.00147101
0.00116659
0.000667735
4.17893e-05
-0.00101998
-0.00248368
-0.00439679
-0.00417132
0.00112769
0.00184717
0.0021901
0.00210886
0.00208317
0.00186007
0.00229173
0.00242808
0.00193182
0.00211705
0.00242664
0.00220241
0.00218497
0.00246687
0.00249326
0.00235716
0.00230049
0.00233185
0.00229067
0.00207888
0.00177985
0.00151598
0.00126855
0.000900197
0.000453198
4.09848e-05
-0.000318407
-0.000659033
-0.00113554
-0.00401987
0.00116556
0.00191675
0.00215518
0.00211818
0.00202308
0.00190073
0.00223025
0.00247095
0.00193186
0.00209515
0.00243664
0.00222264
0.00215696
0.00246526
0.00251093
0.00233086
0.00227748
0.00230182
0.00223678
0.00200628
0.00169679
0.00143625
0.00119848
0.00086714
0.00029436
-0.000550937
-0.00180377
-0.00338655
-0.00530652
-0.00474479
0.00125122
0.00182031
0.00219109
0.0020941
0.00202949
0.00188869
0.00223818
0.00248443
0.00197507
0.0020487
0.0024484
0.0022307
0.00213101
0.00245344
0.00253326
0.00232126
0.00224129
0.00227238
0.00218437
0.00192869
0.00161329
0.00133733
0.00108082
0.000718674
0.000236595
-0.000238568
-0.000610232
-0.00102095
-0.00222632
-0.00627687
0.00131105
0.00181651
0.00217512
0.00208797
0.00202013
0.00186832
0.00225025
0.0024684
0.00201553
0.00203017
0.00243807
0.00226631
0.00210743
0.00242625
0.00254258
0.00231474
0.00219305
0.00223655
0.00214099
0.00185513
0.00152618
0.00123965
0.000978613
0.000634424
0.000205721
-0.0002904
-0.000908724
-0.0020078
-0.00422895
-0.00929523
0.0013542
0.00180341
0.00214534
0.00212341
0.00199416
0.00185983
0.00223279
0.00246825
0.00206961
0.00202377
0.00241211
0.00229535
0.00208661
0.00238399
0.0025523
0.0023191
0.002152
0.00219165
0.00210609
0.00179205
0.00143669
0.00114
0.000853946
0.000476019
6.01752e-06
-0.00053811
-0.00124183
-0.00243405
-0.00476576
-0.00983865
0.00147158
0.00172429
0.00213353
0.00212494
0.00198312
0.00185474
0.00219865
0.00247594
0.00210455
0.00200945
0.00240942
0.00231969
0.00206844
0.002334
0.00254128
0.00231368
0.00210413
0.00214618
0.00208361
0.001745
0.00135348
0.0010394
0.000714736
0.000231707
-0.000375189
-0.00101576
-0.0016106
-0.00236208
-0.00388203
-0.00850892
0.00145426
0.00179734
0.00206768
0.00219417
0.00193649
0.0018776
0.00212656
0.00250448
0.00210967
0.00203504
0.00238011
0.00235051
0.00205536
0.00228092
0.00252648
0.00230078
0.00205922
0.00208643
0.00206208
0.00170751
0.00126201
0.000958663
0.000613892
0.0001019
-0.000781243
-0.00197951
-0.00350803
-0.0053492
-0.00744316
-0.00654117
0.00159001
0.00171212
0.00203708
0.00218115
0.00197209
0.00182112
0.00213503
0.00246527
0.00217209
0.00202561
0.00237268
0.00235269
0.00204654
0.00222116
0.00250739
0.00231147
0.00200954
0.00202505
0.00201994
0.00165374
0.00116829
0.000830594
0.000536414
6.64732e-05
-0.000549592
-0.00113513
-0.00170297
-0.00259497
-0.00463625
-0.00988593
0.00159332
0.00173661
0.00204335
0.00216804
0.00200995
0.00177757
0.00212316
0.00245113
0.00219739
0.0020304
0.00236023
0.00238197
0.00204008
0.00216018
0.00246441
0.00229965
0.0019474
0.00194499
0.0019762
0.00162874
0.00109828
0.00072836
0.000502846
0.000103634
-0.000512815
-0.00130628
-0.00233006
-0.00404641
-0.00711787
-0.0130629
0.00163873
0.00178544
0.0019499
0.00219032
0.00201935
0.00178011
0.00207554
0.00244184
0.00221285
0.00203477
0.00237794
0.00240309
0.00203744
0.00207492
0.00241626
0.00229325
0.00190707
0.00184493
0.00192191
0.00162832
0.00105027
0.000628898
0.000406846
6.30388e-05
-0.00059643
-0.00146654
-0.00255113
-0.00420306
-0.00728095
-0.0133488
0.00171161
0.00173425
0.0019399
0.00218514
0.00203432
0.00177961
0.00202409
0.00243196
0.00223529
0.00203044
0.0023624
0.00243602
0.00203169
0.00199225
0.00233951
0.00229613
0.00187261
0.00173686
0.0018479
0.00162421
0.00102989
0.000522644
0.000266662
-3.61323e-05
-0.000675722
-0.00160802
-0.00277528
-0.00453946
-0.00780425
-0.0141713
0.00170417
0.00179924
0.00193306
0.00215066
0.00208897
0.00177199
0.00198295
0.00241078
0.00225348
0.00200958
0.00232949
0.00247744
0.00206719
0.0019121
0.00224026
0.00227683
0.00185685
0.00163331
0.00173877
0.00160399
0.00102891
0.000432604
0.000100825
-0.000184107
-0.000782086
-0.0017532
-0.00304867
-0.00497049
-0.00836962
-0.0148525
0.00176993
0.00180411
0.00186198
0.00213721
0.00210335
0.00178088
0.0019411
0.00238079
0.00227096
0.00199842
0.00227584
0.00250071
0.00212556
0.00186026
0.00212019
0.00223209
0.00185273
0.00153977
0.00160033
0.00155244
0.00103396
0.000368324
-6.58809e-05
-0.00037431
-0.000931771
-0.00191726
-0.00332966
-0.00539183
-0.00887865
-0.0153755
0.00177945
0.0018096
0.00189094
0.00211461
0.00212527
0.00181105
0.00189296
0.00234234
0.00229481
0.0019893
0.00220146
0.00249493
0.00219907
0.00184363
0.0020026
0.00216432
0.00184596
0.00146252
0.00144647
0.00145608
0.00102678
0.000328926
-0.000219031
-0.00059099
-0.00112571
-0.00210097
-0.00358538
-0.00575779
-0.00930692
-0.0157914
0.0017994
0.00186408
0.00187736
0.00205614
0.00215074
0.00184669
0.00184489
0.0022889
0.00231844
0.00198357
0.00211323
0.00245499
0.00226298
0.00186146
0.00190594
0.0020779
0.00182899
0.00140363
0.00128798
0.00131348
0.000987254
0.000302536
-0.000346676
-0.000812681
-0.00135443
-0.00230386
-0.0038129
-0.0060582
-0.00966457
-0.0161588
0.00182861
0.00186675
0.00185869
0.00203537
0.00215848
0.00188837
0.00181277
0.00222063
0.00233122
0.00200416
0.00203183
0.00238082
0.00230181
0.00190341
0.00183507
0.00198424
0.0018015
0.00135977
0.00113693
0.00113477
0.00089875
0.00027073
-0.000442978
-0.00101463
-0.00159624
-0.00252112
-0.00401799
-0.00630045
-0.00995397
-0.0164615
0.00184474
0.00187879
0.00188294
0.00201062
0.00214731
0.0019355
0.00179856
0.00213812
0.00232292
0.00203696
0.00196538
0.00227878
0.00230484
0.00194747
0.00178845
0.00189081
0.00176327
0.00132786
0.00100279
0.000932132
0.000756005
0.000214072
-0.000517695
-0.00118228
-0.00182821
-0.00274465
-0.00421412
-0.00650716
-0.010201
-0.0167381
0.00186028
0.00190591
0.00188604
0.00197422
0.00213114
0.00197836
0.00180037
0.00205985
0.00229071
0.00207202
0.00192772
0.00216932
0.00227073
0.00198074
0.00176065
0.00180253
0.00171466
0.00130541
0.00089607
0.000726038
0.000568446
0.000116043
-0.000588342
-0.0013176
-0.00203478
-0.00296388
-0.00440861
-0.00669502
-0.0104145
-0.0169817
0.00187538
0.00190999
0.00189347
0.00195342
0.0021125
0.00201188
0.00181556
0.001991
0.00223734
0.00209486
0.00191168
0.00206844
0.0022076
0.00199621
0.00174259
0.00171707
0.00165064
0.0012861
0.000822559
0.000538924
0.000351444
-3.15951e-05
-0.000676946
-0.00143044
-0.00221029
-0.00316855
-0.00460114
-0.00687509
-0.0106071
-0.0171943
0.00188504
0.00192067
0.00191139
0.00193849
0.00208135
0.00203222
0.00183988
0.00193583
0.0021701
0.00209881
0.00190491
0.00198213
0.00212802
0.00198952
0.00172862
0.00163565
0.00157007
0.00125972
0.000776593
0.000389712
0.000130466
-0.00021832
-0.000798104
-0.001538
-0.0023584
-0.00335183
-0.00478534
-0.00704795
-0.0107867
-0.0173987
0.0018951
0.00193486
0.00192601
0.00192754
0.00204685
0.00204107
0.00186819
0.00189624
0.00209754
0.00208297
0.00190216
0.00191003
0.00203913
0.00196179
0.00171522
0.00156171
0.0014747
0.00121252
0.00074557
0.00028346
-6.55459e-05
-0.000425997
-0.000954284
-0.0016595
-0.00249215
-0.00351389
-0.00495636
-0.00721105
-0.0109489
-0.0175771
0.00190616
0.0019385
0.00193386
0.00192385
0.00201619
0.00203846
0.00189333
0.00186903
0.00202751
0.00205115
0.00189616
0.00185092
0.00194569
0.00191432
0.00169728
0.00149809
0.00137111
0.00113854
0.000709471
0.000209508
-0.000221963
-0.000626871
-0.00113254
-0.00180053
-0.00262542
-0.00366289
-0.00511498
-0.0073626
-0.011087
-0.0177073
0.00191465
0.00194171
0.00194605
0.00192555
0.00198928
0.00202426
0.00191036
0.00185175
0.00196275
0.00200793
0.00188289
0.0018022
0.00185434
0.0018481
0.00166968
0.00144577
0.00127111
0.0010443
0.000653141
0.000150593
-0.000341588
-0.000800292
-0.00131224
-0.00195539
-0.00276608
-0.00380746
-0.00526406
-0.00750584
-0.0112221
-0.0178453
0.00192148
0.00194418
0.00195102
0.00192742
0.0019663
0.00200287
0.00191841
0.00184332
0.00190508
0.0019556
0.00186222
0.00176075
0.00176882
0.00176789
0.00162739
0.00139979
0.00118287
0.000939824
0.000573689
8.64823e-05
-0.00043573
-0.000943128
-0.00147737
-0.00211311
-0.00291029
-0.00394936
-0.00540761
-0.0076456
-0.0113543
-0.0179732
0.00192812
0.00194513
0.00195188
0.00192911
0.0019479
0.00197874
0.00191692
0.00183626
0.00185644
0.00189775
0.00183196
0.00172402
0.00169092
0.00168019
0.00156775
0.00135229
0.00110793
0.000838693
0.00048054
9.0089e-06
-0.000522577
-0.00106306
-0.00162208
-0.00226016
-0.0030496
-0.00408573
-0.00554667
-0.00778368
-0.0114846
-0.0180948
0.00193258
0.0019451
0.00195102
0.00192958
0.00193285
0.00195304
0.00190672
0.0018284
0.0018162
0.00183855
0.00179037
0.00168794
0.00162378
0.0015911
0.00149401
0.00129618
0.0010403
0.000747807
0.000383662
-7.88058e-05
-0.000612068
-0.00117067
-0.00174939
-0.00239335
-0.00317941
-0.00421392
-0.00567747
-0.00791569
-0.0116124
-0.0182149
0.0019351
0.00194442
0.00194811
0.00192732
0.00191981
0.00192778
0.00188955
0.0018174
0.00178237
0.00178151
0.00174019
0.00164776
0.00156559
0.00150719
0.00141153
0.00122858
0.000972992
0.000665805
0.000291908
-0.00016939
-0.000703933
-0.00127396
-0.00186646
-0.00251635
-0.0032994
-0.00433046
-0.00579499
-0.00803564
-0.0117325
-0.0183356
0.00193714
0.00194246
0.00194263
0.00192259
0.00190787
0.00190436
0.00186747
0.00180112
0.00175255
0.00172908
0.00168515
0.00160068
0.00151092
0.00143244
0.00132748
0.00115207
0.000901018
0.000587544
0.000206544
-0.000256791
-0.000793956
-0.00137393
-0.00197806
-0.00263254
-0.00341204
-0.00443714
-0.00589981
-0.00814215
-0.0118388
-0.0184383
0.0019372
0.00193915
0.00193596
0.00191559
0.00189576
0.00188255
0.00184266
0.00177912
0.00172395
0.00168237
0.00162879
0.0015474
0.00145593
0.00136459
0.0012483
0.00107209
0.000823769
0.00050877
0.000124315
-0.000339797
-0.000879169
-0.0014675
-0.00208322
-0.00274385
-0.00352049
-0.00453826
-0.00599535
-0.00823638
-0.011934
-0.0185358
0.00193547
0.00193505
0.00192835
0.00190648
0.00188246
0.00186153
0.00181713
0.00175288
0.00169368
0.0016398
0.00157468
0.00149075
0.0013983
0.00130008
0.00117518
0.000994413
0.000745021
0.000428397
4.25861e-05
-0.000420641
-0.000959457
-0.0015531
-0.00217961
-0.00284898
-0.00362584
-0.0046365
-0.00608569
-0.00832321
-0.0120215
-0.0186257
0.0019318
0.0019299
0.00191995
0.00189581
0.00186797
0.00184053
0.00179169
0.00172422
0.00166062
0.0015989
0.00152434
0.00143415
0.00133838
0.0012364
0.00110639
0.00092164
0.000668786
0.000348473
-3.95374e-05
-0.000501392
-0.00103745
-0.00163222
-0.00226623
-0.00294494
-0.00372584
-0.00473266
-0.00617424
-0.00840691
-0.0121074
-0.0187187
0.0019266
0.00192349
0.0019107
0.001884
0.00185249
0.00181912
0.00176624
0.00169478
0.00162568
0.00155799
0.00147677
0.00138004
0.00127872
0.00117264
0.0010399
0.000853035
0.00059721
0.000272185
-0.000120055
-0.000582216
-0.00111501
-0.00170759
-0.00234464
-0.00303074
-0.00381792
-0.00482527
-0.00626208
-0.00848925
-0.0121876
-0.0188002
0.00192047
0.0019159
0.00190035
0.00187113
0.00183627
0.00179732
0.00174045
0.00166547
0.00159036
0.00151665
0.00143057
0.00132895
0.00122164
0.00111015
0.000974655
0.000787144
0.00053015
0.000201258
-0.000196272
-0.000661308
-0.0011924
-0.00178141
-0.00241774
-0.00310787
-0.00390097
-0.00491151
-0.00634658
-0.00856889
-0.0122626
-0.0188732
0.00191322
0.00190726
0.0018892
0.00185745
0.00181956
0.00177536
0.00171435
0.00163653
0.00155582
0.00147565
0.00138518
0.00128019
0.00116808
0.00105074
0.000911341
0.000723126
0.000466327
0.000135436
-0.000266712
-0.000736081
-0.00126786
-0.001854
-0.00248756
-0.00317838
-0.00397535
-0.00498951
-0.00642473
-0.00864339
-0.0123322
-0.01894
0.00190502
0.0018979
0.00187753
0.00184318
0.00180253
0.0017537
0.0016883
0.00160787
0.00152264
0.00143614
0.00134093
0.00123319
0.00111781
0.00099548
0.000851459
0.000661411
0.000405045
7.38108e-05
-0.000331289
-0.000804923
-0.00133912
-0.00192415
-0.0025547
-0.00324387
-0.00404203
-0.00505871
-0.00649499
-0.00871184
-0.0123971
-0.0190025
0.00189618
0.00188802
0.00186554
0.0018286
0.00178548
0.0017327
0.00166275
0.0015796
0.00149105
0.00139896
0.00129861
0.00118808
0.00107057
0.000944584
0.000796081
0.000603144
0.000346521
1.58005e-05
-0.000390503
-0.000867325
-0.00140454
-0.00199009
-0.00261851
-0.00330503
-0.00410224
-0.0051199
-0.0065574
-0.008774
-0.0124576
-0.0190614
0.00188697
0.00187787
0.00185353
0.00181414
0.0017687
0.00171265
0.00163842
0.00155225
0.00146107
0.00136454
0.00125923
0.00114553
0.00102627
0.000897838
0.000745697
0.000549557
0.000291779
-3.84949e-05
-0.000444811
-0.00092342
-0.00146332
-0.00205036
-0.00267791
-0.00336207
-0.00415734
-0.00517462
-0.00661279
-0.00882976
-0.0125127
-0.0191159
0.00187776
0.0018678
0.00184186
0.00180022
0.00175257
0.00169387
0.00161589
0.00152649
0.00143298
0.00133315
0.00122355
0.0011064
0.0009853
0.000855243
0.000700516
0.000501446
0.00024189
-8.84895e-05
-0.000494401
-0.000973624
-0.00151536
-0.00210413
-0.0027319
-0.00341462
-0.00420796
-0.00522406
-0.0066621
-0.00887931
-0.0125622
-0.0191652
0.00186893
0.00185823
0.00183093
0.00178731
0.00173758
0.0016767
0.00159565
0.00150314
0.00140738
0.00130507
0.00119204
0.00107161
0.000948466
0.000817123
0.000660705
0.000459379
0.000197951
-0.000133111
-0.000538831
-0.00101809
-0.00156081
-0.00215105
-0.00277964
-0.0034619
-0.00425389
-0.00526873
-0.00670623
-0.00892348
-0.0126064
-0.0192094
0.00186085
0.00184959
0.00182123
0.00177598
0.0017244
0.00166167
0.00157822
0.00148296
0.00138503
0.00128079
0.00116522
0.001042
0.000916859
0.000784468
0.000627055
0.000424182
0.000161056
-0.000171018
-0.000576864
-0.00105603
-0.00159921
-0.00219051
-0.00282007
-0.00350243
-0.00429362
-0.00530741
-0.00674435
-0.00896181
-0.0126455
-0.0192494
0.00185403
0.00184227
0.00181307
0.00176659
0.00171351
0.00164934
0.00156416
0.00146673
0.00136692
0.00126125
0.00114405
0.0010188
0.000892003
0.000758792
0.000600906
0.000397175
0.000132759
-0.000200433
-0.000606761
-0.00108597
-0.00162934
-0.00222128
-0.00285156
-0.00353417
-0.00432488
-0.00533782
-0.00677415
-0.00899163
-0.0126759
-0.0192803
0.00184879
0.00183637
0.00180633
0.00175866
0.00170398
0.00163802
0.00155092
0.00145128
0.00134936
0.00124209
0.00112358
0.00099699
0.000868924
0.000734876
0.000576457
0.00037194
0.00010614
-0.000228788
-0.000636661
-0.00111691
-0.00166092
-0.0022533
-0.00288385
-0.00356634
-0.00435636
-0.0053681
-0.0068031
-0.00901971
-0.0127043
-0.0193121
0.013589
0.013278
0.011748
0.00952504
0.00667587
0.00334101
-0.000289903
-0.00382487
-0.00654437
-0.00785794
-0.00784168
-0.00706478
-0.00607462
-0.00517065
-0.00446788
-0.00398162
-0.00367832
-0.00350827
-0.00342413
-0.00338821
-0.00337385
-0.00336439
-0.00335133
-0.00333172
-0.00330561
-0.00327428
-0.00323931
-0.00320258
-0.00316613
-0.00313181
-0.00310071
-0.00307299
-0.00304809
-0.00302547
-0.0030048
-0.0029861
-0.00296934
-0.00295445
-0.00294127
-0.00292986
-0.00292019
-0.00291237
-0.00290611
-0.00290114
-0.0028969
-0.00289337
-0.00289057
-0.00288905
-0.00288876
-0.00288975
-0.00289142
-0.00289398
-0.00289713
-0.00290124
-0.0029055
-0.00291003
-0.00291413
-0.00291868
-0.00292326
-0.00292888
-0.00293447
-0.00294073
-0.00294634
-0.00295271
-0.00295865
-0.00296585
-0.00297275
-0.00298149
-0.00298984
-0.00299969
-0.00300785
-0.00301706
-0.00302438
-0.00303369
-0.00304155
-0.00305227
-0.00306124
-0.00307312
-0.00308226
-0.0030944
-0.00310347
-0.00311651
-0.00312636
-0.00314068
-0.00315105
-0.00316615
-0.00317659
-0.00319217
-0.00320265
-0.00321895
-0.00323005
-0.00324756
-0.00325951
-0.00327776
-0.00328994
-0.00330835
-0.00332106
-0.00334013
-0.00335422
-0.0033741
-0.0033897
-0.00340971
-0.00342651
-0.0034459
-0.00346396
-0.00348248
-0.00350246
-0.00352026
-0.0035428
-0.00355938
-0.00358427
-0.00359884
-0.00362616
-0.00363874
-0.00366913
-0.00367994
-0.00371319
-0.00372139
-0.00375617
-0.00376121
-0.00379689
-0.00379943
-0.00383532
-0.00383581
-0.00387027
-0.00386923
-0.00390083
-0.00389991
-0.00392762
-0.0039287
-0.00395112
-0.00395581
-0.0039715
-0.00398141
-0.00398953
-0.00400621
-0.00400653
-0.00403064
-0.00402319
-0.00405422
-0.00403999
-0.00407681
-0.00405797
-0.00409804
-0.00407688
-0.00411641
-0.00409613
-0.004131
-0.00411524
-0.00414134
-0.00413335
-0.00414734
-0.0041497
-0.00415004
-0.00416414
-0.0041515
-0.00417651
-0.0041537
-0.0041867
-0.00415879
-0.0041949
-0.00416819
-0.0042011
-0.00418221
-0.00420574
-0.00419973
-0.0042092
-0.00421873
-0.00421265
-0.00423673
-0.00421741
-0.00425124
-0.00422514
-0.0042613
-0.00423713
-0.00426696
-0.00425353
-0.00426974
-0.00427308
-0.00427225
-0.00429313
-0.00427685
-0.00431011
-0.00428589
-0.00432168
-0.00429991
-0.0043271
-0.00431829
-0.00432846
-0.0043383
-0.00432953
-0.00435657
-0.00433469
-0.00436977
-0.00434661
-0.00437661
-0.00436508
-0.00437876
-0.00438708