/*--------------------------------*- C++ -*----------------------------------*\
| =========                 |                                                 |
| \\      /  F ield         | OpenFOAM: The Open Source CFD Toolbox           |
|  \\    /   O peration     | Version:  v2006                                 |
|   \\  /    A nd           | Website:  www.openfoam.com                      |
|    \\/     M anipulation  |                                                 |
\*---------------------------------------------------------------------------*/
FoamFile
{
    version     2.0;
    format      ascii;
    class       surfaceScalarField;
    location    "0.4";
    object      phi;
}
// * * * * * * * * * * * * * * * * * * * * * * * * * * * * * * * * * * * * * //

dimensions      [0 3 -1 0 0 0 0];
oriented        oriented;


internalField   nonuniform List<scalar> 
52390
(
1.16757e-06
-4.05258e-07
1.18025e-06
5.2707e-07
1.18152e-06
-2.71652e-07
1.16767e-06
1.56291e-07
1.1687e-06
-2.45889e-07
1.1751e-06
1.6497e-07
1.18073e-06
-1.03324e-07
1.18069e-06
1.88588e-07
1.18278e-06
-9.82417e-08
1.18217e-06
1.33279e-07
1.1858e-06
-8.0797e-08
1.18558e-06
8.15188e-08
1.18764e-06
-9.13574e-08
1.18536e-06
4.83603e-08
1.18602e-06
-6.34893e-08
1.18348e-06
6.28505e-08
1.18443e-06
-3.48654e-08
1.18216e-06
4.83573e-08
1.18374e-06
-4.32782e-08
1.18143e-06
1.90748e-08
1.18346e-06
-4.6392e-08
1.18105e-06
1.21692e-08
1.18357e-06
-2.84438e-08
1.18069e-06
1.85635e-08
1.1836e-06
-1.0491e-08
1.17967e-06
1.8848e-08
1.18196e-06
-3.30087e-09
1.17525e-06
8.87803e-09
1.17055e-06
2.07441e-08
2.52176e-08
1.14173e-06
1.2251e-06
-4.06097e-07
1.23877e-06
5.13403e-07
1.24074e-06
-2.73624e-07
1.22685e-06
1.70185e-07
1.22862e-06
-2.47659e-07
1.23451e-06
1.59073e-07
1.24021e-06
-1.09021e-07
1.24084e-06
1.87961e-07
1.2425e-06
-9.99002e-08
1.24232e-06
1.33452e-07
1.24533e-06
-8.38005e-08
1.24581e-06
8.10358e-08
1.24689e-06
-9.24391e-08
1.24551e-06
4.97376e-08
1.24484e-06
-6.28142e-08
1.24394e-06
6.37462e-08
1.24276e-06
-3.36769e-08
1.24277e-06
4.83425e-08
1.24142e-06
-4.19313e-08
1.24225e-06
1.82474e-08
1.2403e-06
-4.4437e-08
1.24238e-06
1.00883e-08
1.23934e-06
-2.54108e-08
1.24288e-06
1.50228e-08
1.23807e-06
-5.67578e-09
1.24254e-06
1.4373e-08
1.23512e-06
4.12045e-09
1.23815e-06
5.84639e-09
1.22568e-06
3.32169e-08
4.0495e-08
1.2104e-06
1.28434e-06
-4.07653e-07
1.30059e-06
4.97151e-07
1.30112e-06
-2.74151e-07
1.29055e-06
1.80757e-07
1.29052e-06
-2.47637e-07
1.29828e-06
1.51317e-07
1.30199e-06
-1.12728e-07
1.30501e-06
1.84942e-07
1.30404e-06
-9.89389e-08
1.30633e-06
1.3117e-07
1.30633e-06
-8.38048e-08
1.30919e-06
7.81781e-08
1.3071e-06
-9.0354e-08
1.3085e-06
4.83421e-08
1.30468e-06
-5.89921e-08
1.30676e-06
6.16667e-08
1.30219e-06
-2.91077e-08
1.30491e-06
4.56193e-08
1.30009e-06
-3.71063e-08
1.30337e-06
1.49617e-08
1.2984e-06
-3.94655e-08
1.30246e-06
6.03235e-09
1.29749e-06
-2.04424e-08
1.30171e-06
1.07979e-08
1.29673e-06
-6.92921e-10
1.29957e-06
1.15282e-08
1.2949e-06
8.79527e-09
1.292e-06
8.74481e-09
1.28848e-06
3.67364e-08
6.32821e-08
1.26569e-06
1.34566e-06
-4.09208e-07
1.36336e-06
4.79447e-07
1.36186e-06
-2.72648e-07
1.35534e-06
1.87274e-07
1.35328e-06
-2.45575e-07
1.36261e-06
1.41985e-07
1.36433e-06
-1.14449e-07
1.36924e-06
1.80034e-07
1.36591e-06
-9.561e-08
1.36989e-06
1.27197e-07
1.36746e-06
-8.13801e-08
1.37151e-06
7.41319e-08
1.36728e-06
-8.61236e-08
1.36996e-06
4.56595e-08
1.36486e-06
-5.38942e-08
1.36782e-06
5.87127e-08
1.36241e-06
-2.37013e-08
1.36511e-06
4.29133e-08
1.35981e-06
-3.17969e-08
1.36251e-06
1.22576e-08
1.35788e-06
-3.48355e-08
1.36089e-06
3.02573e-09
1.35725e-06
-1.68108e-08
1.3598e-06
8.25712e-09
1.35689e-06
2.21166e-09
1.35733e-06
1.10898e-08
1.35519e-06
1.09314e-08
1.34949e-06
1.44465e-08
1.34823e-06
3.79945e-08
8.68923e-08
1.32462e-06
1.40915e-06
-4.10006e-07
1.42665e-06
4.6195e-07
1.42313e-06
-2.69125e-07
1.42014e-06
1.90263e-07
1.41649e-06
-2.41932e-07
1.4262e-06
1.32277e-07
1.4266e-06
-1.14849e-07
1.43221e-06
1.74428e-07
1.4277e-06
-9.10994e-08
1.43205e-06
1.2284e-07
1.4286e-06
-7.79295e-08
1.43245e-06
7.02857e-08
1.42765e-06
-8.13258e-08
1.43022e-06
4.30919e-08
1.42553e-06
-4.92044e-08
1.42814e-06
5.61014e-08
1.42345e-06
-1.90144e-08
1.42535e-06
4.10204e-08
1.42071e-06
-2.7156e-08
1.42249e-06
1.04693e-08
1.41869e-06
-3.10341e-08
1.42088e-06
8.34535e-10
1.41823e-06
-1.416e-08
1.42006e-06
6.42703e-09
1.41803e-06
4.24969e-09
1.41783e-06
1.12856e-08
1.4159e-06
1.28597e-08
1.4109e-06
1.94451e-08
1.40728e-06
4.16199e-08
1.13243e-07
1.38093e-06
1.4752e-06
-4.09533e-07
1.49102e-06
4.46132e-07
1.48605e-06
-2.64153e-07
1.48546e-06
1.90851e-07
1.48107e-06
-2.37541e-07
1.48987e-06
1.23478e-07
1.48964e-06
-1.14618e-07
1.495e-06
1.69067e-07
1.49045e-06
-8.65474e-08
1.49441e-06
1.18881e-07
1.49096e-06
-7.44811e-08
1.4941e-06
6.71381e-08
1.48956e-06
-7.67818e-08
1.49168e-06
4.09693e-08
1.48778e-06
-4.52989e-08
1.49012e-06
5.37581e-08
1.48626e-06
-1.51557e-08
1.48789e-06
3.93919e-08
1.48379e-06
-2.30597e-08
1.48534e-06
8.92764e-09
1.48189e-06
-2.75861e-08
1.48389e-06
-1.16861e-09
1.4815e-06
-1.17705e-08
1.48326e-06
4.66525e-09
1.48126e-06
6.25557e-09
1.48142e-06
1.112e-08
1.47837e-06
1.59169e-08
1.47542e-06
2.23943e-08
1.47344e-06
4.35955e-08
6.8637e-08
1.51805e-06
1.54429e-06
-4.07611e-07
1.55769e-06
4.32735e-07
1.55203e-06
-2.58492e-07
1.55285e-06
1.90034e-07
1.54838e-06
-2.33075e-07
1.5556e-06
1.16262e-07
1.555e-06
-1.14025e-07
1.55984e-06
1.64225e-07
1.55576e-06
-8.24627e-08
1.55928e-06
1.15358e-07
1.55612e-06
-7.13159e-08
1.55882e-06
6.44407e-08
1.55457e-06
-7.25395e-08
1.55652e-06
3.90206e-08
1.55307e-06
-4.18459e-08
1.55554e-06
5.12827e-08
1.55219e-06
-1.18064e-08
1.55411e-06
3.7477e-08
1.55035e-06
-1.92952e-08
1.55203e-06
7.2383e-09
1.5487e-06
-2.42489e-08
1.55062e-06
-3.09112e-09
1.54832e-06
-9.46941e-09
1.54983e-06
3.15769e-09
1.54818e-06
7.90227e-09
1.54759e-06
1.17081e-08
1.54618e-06
1.7324e-08
1.54078e-06
2.77964e-08
1.53592e-06
4.84583e-08
9.99504e-08
1.50461e-06
1.61683e-06
-4.04315e-07
1.62792e-06
4.21646e-07
1.62216e-06
-2.52725e-07
1.62384e-06
1.8835e-07
1.61952e-06
-2.28753e-07
1.62519e-06
1.10591e-07
1.62413e-06
-1.12966e-07
1.62866e-06
1.59694e-07
1.62501e-06
-7.88134e-08
1.62841e-06
1.11958e-07
1.62539e-06
-6.8292e-08
1.62805e-06
6.17842e-08
1.62389e-06
-6.83875e-08
1.62595e-06
3.69608e-08
1.6226e-06
-3.849e-08
1.62541e-06
4.84692e-08
1.62234e-06
-8.73615e-09
1.62474e-06
3.50821e-08
1.62123e-06
-1.57873e-08
1.62313e-06
5.33482e-09
1.61986e-06
-2.09819e-08
1.62162e-06
-4.84645e-09
1.61937e-06
-7.21861e-09
1.62052e-06
2.01032e-09
1.61909e-06
9.33173e-09
1.61797e-06
1.28217e-08
1.61724e-06
1.80579e-08
1.61184e-06
3.31943e-08
1.60656e-06
5.37378e-08
1.37032e-07
1.56948e-06
1.69309e-06
-3.99833e-07
1.70254e-06
4.12194e-07
1.69694e-06
-2.47122e-07
1.69934e-06
1.85948e-07
1.69501e-06
-2.24422e-07
1.69959e-06
1.06011e-07
1.69789e-06
-1.11265e-07
1.70244e-06
1.55142e-07
1.69899e-06
-7.53618e-08
1.70256e-06
1.08391e-07
1.69946e-06
-6.5196e-08
1.70234e-06
5.89071e-08
1.6981e-06
-6.41514e-08
1.70041e-06
3.46522e-08
1.69697e-06
-3.50461e-08
1.70014e-06
4.52945e-08
1.69723e-06
-5.82177e-09
1.70007e-06
3.2239e-08
1.69677e-06
-1.2486e-08
1.69884e-06
3.2676e-09
1.6956e-06
-1.77495e-08
1.69721e-06
-6.45563e-09
1.69479e-06
-4.79529e-09
1.69602e-06
7.76359e-10
1.6936e-06
1.17543e-08
1.69432e-06
1.2107e-08
1.68924e-06
2.31384e-08
1.69333e-06
2.91006e-08
1.6941e-06
5.29702e-08
8.84912e-08
1.74264e-06
1.77326e-06
-3.94367e-07
1.78188e-06
4.0357e-07
1.77646e-06
-2.41701e-07
1.77959e-06
1.82815e-07
1.77495e-06
-2.19785e-07
1.77896e-06
1.02001e-07
1.77655e-06
-1.0885e-07
1.78137e-06
1.50317e-07
1.77789e-06
-7.18794e-08
1.78178e-06
1.04498e-07
1.77846e-06
-6.18727e-08
1.78167e-06
5.57025e-08
1.77726e-06
-5.9741e-08
1.77986e-06
3.20529e-08
1.77627e-06
-3.14571e-08
1.77974e-06
4.1816e-08
1.77693e-06
-3.00563e-09
1.78007e-06
2.90968e-08
1.77698e-06
-9.39429e-09
1.77902e-06
1.22173e-09
1.77597e-06
-1.46915e-08
1.77718e-06
-7.66663e-09
1.77495e-06
-2.56672e-09
1.77569e-06
3.14109e-11
1.77333e-06
1.41185e-08
1.77408e-06
1.13523e-08
1.76805e-06
2.91733e-08
1.77416e-06
2.29915e-08
1.77541e-06
5.17198e-08
3.27666e-08
1.83113e-06
1.85747e-06
-3.88086e-07
1.86592e-06
3.95116e-07
1.86057e-06
-2.36347e-07
1.86446e-06
1.78925e-07
1.85926e-06
-2.14583e-07
1.86311e-06
9.81498e-08
1.86001e-06
-1.0575e-07
1.86526e-06
1.45059e-07
1.86159e-06
-6.82037e-08
1.86588e-06
1.00211e-07
1.86223e-06
-5.82277e-08
1.86579e-06
5.21413e-08
1.86117e-06
-5.51182e-08
1.86406e-06
2.91588e-08
1.86033e-06
-2.77248e-08
1.86404e-06
3.81109e-08
1.8613e-06
-2.65382e-10
1.86457e-06
2.58238e-08
1.86169e-06
-6.51848e-09
1.86356e-06
-6.40341e-10
1.86079e-06
-1.19227e-08
1.86143e-06
-8.30941e-09
1.85973e-06
-8.68513e-10
1.85939e-06
3.7065e-10
1.85844e-06
1.50727e-08
1.85669e-06
1.30998e-08
1.85499e-06
3.08783e-08
1.84995e-06
2.80265e-08
1.84007e-06
6.15977e-08
6.88692e-08
1.80397e-06
1.94587e-06
-3.81115e-07
1.95458e-06
3.86406e-07
1.94913e-06
-2.30896e-07
1.95378e-06
1.74275e-07
1.94786e-06
-2.08663e-07
1.95183e-06
9.41821e-08
1.94809e-06
-1.02019e-07
1.95387e-06
1.39283e-07
1.9499e-06
-6.42328e-08
1.95461e-06
9.55046e-08
1.95059e-06
-5.4212e-08
1.9545e-06
4.82292e-08
1.94966e-06
-5.02786e-08
1.95283e-06
2.59944e-08
1.94899e-06
-2.38844e-08
1.95282e-06
3.42743e-08
1.95019e-06
2.37323e-09
1.95341e-06
2.25952e-08
1.95081e-06
-3.91082e-09
1.95233e-06
-2.16624e-09
1.94995e-06
-9.54257e-09
1.94998e-06
-8.34163e-09
1.94882e-06
2.98885e-10
1.94759e-06
1.59454e-09
1.94756e-06
1.51062e-08
1.94423e-06
1.64294e-08
1.94532e-06
2.97876e-08
1.93421e-06
3.91403e-08
1.92941e-06
6.63914e-08
1.00169e-07
1.89811e-06
2.03862e-06
-3.73546e-07
2.04783e-06
3.772e-07
2.04211e-06
-2.25179e-07
2.0475e-06
1.68885e-07
2.0408e-06
-2.01968e-07
2.04506e-06
8.9922e-08
2.04074e-06
-9.76935e-08
2.04707e-06
1.32956e-07
2.04275e-06
-5.99135e-08
2.04787e-06
9.03782e-08
2.04348e-06
-4.98202e-08
2.04771e-06
4.40008e-08
2.04268e-06
-4.52519e-08
2.04605e-06
2.26231e-08
2.04218e-06
-2.00076e-08
2.04602e-06
3.04326e-08
2.04357e-06
4.82502e-09
2.04657e-06
1.95944e-08
2.04433e-06
-1.67742e-09
2.04538e-06
-3.21193e-09
2.04347e-06
-7.63457e-09
2.04294e-06
-7.81301e-09
2.04209e-06
1.14829e-09
2.04062e-06
3.07224e-09
2.04018e-06
1.55379e-08
2.03727e-06
1.93396e-08
2.03643e-06
3.06357e-08
2.02946e-06
4.61077e-08
2.018e-06
7.78507e-08
1.33621e-07
1.98455e-06
2.1359e-06
-3.6544e-07
2.14572e-06
3.67374e-07
2.13958e-06
-2.19039e-07
2.14569e-06
1.62774e-07
2.13823e-06
-1.94505e-07
2.1429e-06
8.52506e-08
2.138e-06
-9.27922e-08
2.14487e-06
1.26086e-07
2.14018e-06
-5.52272e-08
2.14571e-06
8.48506e-08
2.14097e-06
-4.50807e-08
2.14546e-06
3.95103e-08
2.1403e-06
-4.00919e-08
2.14379e-06
1.91347e-08
2.13996e-06
-1.61815e-08
2.14369e-06
2.67108e-08
2.14151e-06
7.00114e-09
2.14416e-06
1.69485e-08
2.14235e-06
1.27951e-10
2.14291e-06
-3.77488e-09
2.14137e-06
-6.0875e-09
2.14059e-06
-7.03278e-09
2.13957e-06
2.16626e-09
2.13858e-06
4.06168e-09
2.13682e-06
1.7297e-08
2.13523e-06
2.09322e-08
2.12985e-06
3.60178e-08
2.13589e-06
4.00581e-08
2.15992e-06
5.38274e-08
5.82414e-08
2.2353e-06
2.23788e-06
-3.56836e-07
2.2484e-06
3.56854e-07
2.24171e-06
-2.1235e-07
2.24853e-06
1.5596e-07
2.24033e-06
-1.86306e-07
2.24549e-06
8.00846e-08
2.24003e-06
-8.73257e-08
2.24741e-06
1.18705e-07
2.24236e-06
-5.01824e-08
2.24825e-06
7.89617e-08
2.24322e-06
-4.00523e-08
2.2479e-06
3.48381e-08
2.24269e-06
-3.48873e-08
2.24617e-06
1.56562e-08
2.24252e-06
-1.25355e-08
2.24596e-06
2.32787e-08
2.24422e-06
8.73704e-09
2.24631e-06
1.48567e-08
2.24514e-06
1.30365e-09
2.24496e-06
-3.59721e-09
2.24417e-06
-5.29694e-09
2.2425e-06
-5.36713e-09
2.2424e-06
2.27122e-09
2.24012e-06
6.34206e-09
2.23979e-06
1.76255e-08
2.23676e-06
2.39619e-08
2.23461e-06
3.81688e-08
2.22776e-06
4.69043e-08
2.21183e-06
6.97552e-08
8.92076e-08
2.18087e-06
2.34479e-06
-3.47752e-07
2.35605e-06
3.45597e-07
2.34872e-06
-2.05017e-07
2.35622e-06
1.4846e-07
2.34731e-06
-1.77403e-07
2.35303e-06
7.43682e-08
2.34701e-06
-8.1309e-08
2.35486e-06
1.10858e-07
2.34949e-06
-4.48071e-08
2.35568e-06
7.27694e-08
2.35044e-06
-3.48133e-08
2.3552e-06
3.00811e-08
2.35006e-06
-2.97467e-08
2.35338e-06
1.23272e-08
2.35006e-06
-9.20919e-09
2.35304e-06
2.03011e-08
2.3519e-06
9.87326e-09
2.35328e-06
1.34787e-08
2.35287e-06
1.70982e-09
2.35182e-06
-2.54634e-09
2.35194e-06
-5.41777e-09
2.34917e-06
-2.59338e-09
2.35033e-06
1.10642e-09
2.34627e-06
1.04007e-08
2.34816e-06
1.57437e-08
2.34272e-06
2.93973e-08
2.34391e-06
3.69759e-08
2.32924e-06
6.15726e-08
2.31969e-06
7.9308e-08
1.13365e-07
2.29553e-06
2.45684e-06
-3.38201e-07
2.46886e-06
3.33578e-07
2.46083e-06
-1.96983e-07
2.469e-06
1.4029e-07
2.45943e-06
-1.67832e-07
2.46571e-06
6.80837e-08
2.45918e-06
-7.47782e-08
2.46743e-06
1.02611e-07
2.46179e-06
-3.91632e-08
2.46819e-06
6.63652e-08
2.46285e-06
-2.94727e-08
2.46756e-06
2.53652e-08
2.46263e-06
-2.48081e-08
2.46566e-06
9.29228e-09
2.46277e-06
-6.31706e-09
2.46521e-06
1.78631e-08
2.46468e-06
1.04012e-08
2.46547e-06
1.26887e-08
2.46547e-06
1.71109e-09
2.46427e-06
-1.35049e-09
2.4641e-06
-5.24784e-09
2.46218e-06
-6.70204e-10
2.46181e-06
1.47553e-09
2.45966e-06
1.25488e-08
2.45852e-06
1.68895e-08
2.45568e-06
3.22292e-08
2.4535e-06
3.91565e-08
2.44554e-06
6.95348e-08
2.42755e-06
9.72996e-08
1.4764e-07
2.39328e-06
2.57429e-06
-3.28193e-07
2.58708e-06
3.20787e-07
2.57832e-06
-1.88226e-07
2.58713e-06
1.31476e-07
2.57693e-06
-1.5763e-07
2.58377e-06
6.12443e-08
2.57678e-06
-6.77906e-08
2.58535e-06
9.40489e-08
2.57953e-06
-3.33432e-08
2.58602e-06
5.98677e-08
2.58071e-06
-2.41636e-08
2.58524e-06
2.08408e-08
2.58066e-06
-2.02258e-08
2.58325e-06
6.69586e-09
2.5809e-06
-3.96215e-09
2.58274e-06
1.60163e-08
2.58279e-06
1.03551e-08
2.58315e-06
1.23283e-08
2.58323e-06
1.6289e-09
2.58239e-06
-5.05781e-10
2.58128e-06
-4.1367e-09
2.581e-06
-3.93106e-10
2.57815e-06
4.32939e-09
2.57911e-06
1.15809e-08
2.57404e-06
2.19618e-08
2.57364e-06
3.26322e-08
2.56603e-06
4.677e-08
2.58333e-06
5.22286e-08
2.61962e-06
6.10122e-08
6.01218e-08
2.70714e-06
2.69737e-06
-3.17733e-07
2.71093e-06
3.07221e-07
2.70146e-06
-1.78751e-07
2.71088e-06
1.22052e-07
2.70009e-06
-1.46842e-07
2.70745e-06
5.38907e-08
2.70008e-06
-6.04267e-08
2.70885e-06
8.52805e-08
2.70299e-06
-2.74767e-08
2.70942e-06
5.34357e-08
2.70432e-06
-1.90665e-08
2.70845e-06
1.67118e-08
2.70444e-06
-1.62188e-08
2.70638e-06
4.76146e-09
2.70475e-06
-2.33115e-09
2.70584e-06
1.49254e-08
2.70665e-06
9.54113e-09
2.70625e-06
1.27314e-08
2.70706e-06
8.21454e-10
2.70535e-06
1.20374e-09
2.70544e-06
-4.22833e-09
2.70337e-06
1.67942e-09
2.70282e-06
4.87826e-09
2.70066e-06
1.374e-08
2.69902e-06
2.36014e-08
2.69652e-06
3.51347e-08
2.69327e-06
5.0016e-08
2.68446e-06
6.10406e-08
2.66349e-06
8.19818e-08
9.50915e-08
2.62852e-06
2.82636e-06
-3.06824e-07
2.8407e-06
2.92885e-07
2.83051e-06
-1.68568e-07
2.84051e-06
1.12052e-07
2.82918e-06
-1.35506e-07
2.83701e-06
4.60615e-08
2.82933e-06
-5.27545e-08
2.83821e-06
7.64012e-08
2.83241e-06
-2.16756e-08
2.83866e-06
4.71884e-08
2.83388e-06
-1.4285e-08
2.83754e-06
1.30491e-08
2.83412e-06
-1.27994e-08
2.83548e-06
3.40681e-09
2.83438e-06
-1.23118e-09
2.83499e-06
1.43075e-08
2.83624e-06
8.28989e-09
2.83534e-06
1.3635e-08
2.83675e-06
-5.87826e-10
2.83408e-06
3.87474e-09
2.83575e-06
-5.89435e-09
2.83109e-06
6.3329e-09
2.83408e-06
1.89111e-09
2.8277e-06
2.01236e-08
2.83162e-06
1.96786e-08
2.82429e-06
4.24675e-08
2.82568e-06
4.8624e-08
2.80528e-06
8.1435e-08
2.79575e-06
9.15191e-08
1.19608e-07
2.77123e-06
2.96155e-06
-2.95478e-07
2.97663e-06
2.77808e-07
2.96578e-06
-1.57719e-07
2.97629e-06
1.01544e-07
2.96449e-06
-1.23706e-07
2.97269e-06
3.78592e-08
2.96484e-06
-4.49048e-08
2.97366e-06
6.75806e-08
2.96813e-06
-1.6146e-08
2.97395e-06
4.13686e-08
2.96978e-06
-1.01149e-08
2.97259e-06
1.02361e-08
2.97024e-06
-1.04453e-08
2.97046e-06
3.18809e-09
2.97042e-06
-1.1985e-09
2.97019e-06
1.45368e-08
2.97198e-06
6.50199e-09
2.97095e-06
1.46691e-08
2.9719e-06
-1.54148e-09
2.97044e-06
5.34103e-09
2.97015e-06
-5.60635e-09
2.96807e-06
8.40618e-09
2.96752e-06
2.44065e-09
2.96458e-06
2.30678e-08
2.96326e-06
2.09982e-08
2.96102e-06
4.47075e-08
2.95862e-06
5.10285e-08
2.94783e-06
9.22254e-08
2.92259e-06
1.16752e-07
1.57764e-07
2.88444e-06
3.10325e-06
-2.83717e-07
3.11902e-06
2.62034e-07
3.10756e-06
-1.4626e-07
3.11851e-06
9.05923e-08
3.10632e-06
-1.11517e-07
3.11482e-06
2.93605e-08
3.10687e-06
-3.69574e-08
3.11555e-06
5.89046e-08
3.11036e-06
-1.09537e-08
3.11574e-06
3.59841e-08
3.11206e-06
-6.43459e-09
3.11437e-06
7.92778e-09
3.11241e-06
-8.4841e-09
3.11266e-06
2.94071e-09
3.11183e-06
-3.69843e-10
3.11348e-06
1.28886e-08
3.11213e-06
7.84376e-09
3.1155e-06
1.12987e-08
3.11062e-06
3.34305e-09
3.11609e-06
-1.24369e-10
3.10775e-06
2.72604e-09
3.11484e-06
1.31793e-09
3.1047e-06
1.25812e-08
3.11248e-06
1.52891e-08
3.10063e-06
3.28518e-08
3.10434e-06
4.09974e-08
3.09403e-06
6.13326e-08
3.12722e-06
5.90332e-08
3.17387e-06
7.01046e-08
6.48483e-08
3.26679e-06
3.25177e-06
-2.71574e-07
3.26817e-06
2.45627e-07
3.25621e-06
-1.34292e-07
3.2675e-06
7.93032e-08
3.25503e-06
-9.90512e-08
3.2637e-06
2.06921e-08
3.2558e-06
-2.9054e-08
3.26416e-06
5.05354e-08
3.25949e-06
-6.27535e-09
3.26422e-06
3.12464e-08
3.26131e-06
-3.51787e-09
3.26266e-06
6.57524e-09
3.26191e-06
-7.7312e-09
3.26071e-06
4.13961e-09
3.26164e-06
-1.30445e-09
3.26102e-06
1.35151e-08
3.26292e-06
5.93917e-09
3.2614e-06
1.28208e-08
3.26356e-06
1.17905e-09
3.25975e-06
3.68949e-09
3.26273e-06
-2.57421e-10
3.25651e-06
7.54118e-09
3.26025e-06
8.84196e-09
3.25321e-06
2.23318e-08
3.25713e-06
2.89306e-08
3.25149e-06
4.66361e-08
3.25326e-06
5.95643e-08
3.23283e-06
7.94575e-08
3.2093e-06
9.364e-08
1.06869e-07
3.16728e-06
3.40743e-06
-2.59068e-07
3.4244e-06
2.28647e-07
3.41204e-06
-1.21926e-07
3.42354e-06
6.77991e-08
3.41092e-06
-8.64253e-08
3.41963e-06
1.1978e-08
3.41191e-06
-2.13347e-08
3.4198e-06
4.2647e-08
3.41583e-06
-2.30336e-09
3.41969e-06
2.73842e-08
3.41783e-06
-1.65911e-09
3.41783e-06
6.57374e-09
3.4188e-06
-8.70157e-09
3.4156e-06
7.34714e-09
3.41869e-06
-4.39693e-09
3.41593e-06
1.62728e-08
3.41982e-06
2.04423e-09
3.41627e-06
1.63712e-08
3.4206e-06
-3.14894e-09
3.41442e-06
9.87543e-09
3.41966e-06
-5.49684e-09
3.41138e-06
1.58177e-08
3.41707e-06
3.15268e-09
3.40832e-06
3.10779e-08
3.4136e-06
2.36573e-08
3.40763e-06
5.25998e-08
3.41293e-06
5.42695e-08
3.38858e-06
1.03802e-07
3.3616e-06
1.20625e-07
1.5167e-07
3.3168e-06
3.57058e-06
-2.46242e-07
3.58803e-06
2.11198e-07
3.5754e-06
-1.09294e-07
3.58701e-06
5.61956e-08
3.57431e-06
-7.37303e-08
3.58302e-06
3.27089e-09
3.57544e-06
-1.37564e-08
3.58303e-06
3.50533e-08
3.57931e-06
1.42064e-09
3.5832e-06
2.34898e-08
3.58074e-06
8.00954e-10
3.58225e-06
5.06695e-09
3.58056e-06
-7.00709e-09
3.58144e-06
6.46738e-09
3.57868e-06
-1.64302e-09
3.5841e-06
1.0858e-08
3.57716e-06
8.98055e-09
3.58679e-06
6.74692e-09
3.57532e-06
8.31505e-09
3.58758e-06
-2.38215e-09
3.57197e-06
1.01101e-08
3.58718e-06
6.13942e-10
3.56892e-06
2.14081e-08
3.58518e-06
1.48222e-08
3.56535e-06
4.34835e-08
3.5757e-06
4.22501e-08
3.5619e-06
6.80724e-08
3.61078e-06
5.49165e-08
3.6634e-06
6.80022e-08
6.28324e-08
3.75224e-06
3.74162e-06
-2.33156e-07
3.7594e-06
1.93417e-07
3.74673e-06
-9.66201e-08
3.75823e-06
4.46919e-08
3.74565e-06
-6.11476e-08
3.75415e-06
-5.22949e-09
3.7469e-06
-6.5111e-09
3.75395e-06
2.80016e-08
3.75087e-06
4.50711e-09
3.75404e-06
2.0313e-08
3.75239e-06
2.45216e-09
3.75277e-06
4.68952e-09
3.75313e-06
-7.37125e-09
3.75012e-06
9.47677e-09
3.75413e-06
-5.64346e-09
3.74936e-06
1.56226e-08
3.75599e-06
2.35014e-09
3.74895e-06
1.37873e-08
3.75706e-06
2.0878e-10
3.74716e-06
7.51117e-09
3.75535e-06
1.92782e-09
3.74482e-06
1.11436e-08
3.75192e-06
1.43021e-08
3.74257e-06
2.41709e-08
3.75037e-06
3.56873e-08
3.74399e-06
4.86289e-08
3.74421e-06
6.78491e-08
3.72122e-06
7.79103e-08
3.69087e-06
9.83537e-08
1.12217e-07
3.64148e-06
3.92088e-06
-2.19851e-07
3.93884e-06
1.75463e-07
3.92638e-06
-8.41617e-08
3.93753e-06
3.35387e-08
3.92532e-06
-4.89329e-08
3.93332e-06
-1.32303e-08
3.92668e-06
1.30325e-10
3.93288e-06
2.17992e-08
3.93079e-06
6.59411e-09
3.93284e-06
1.82682e-08
3.93234e-06
2.94912e-09
3.9317e-06
5.32974e-09
3.93295e-06
-8.62371e-09
3.92899e-06
1.34424e-08
3.93463e-06
-1.12909e-08
3.92697e-06
2.32844e-08
3.93779e-06
-8.47007e-09
3.92517e-06
2.64075e-08
3.94021e-06
-1.48306e-08
3.92195e-06
2.57729e-08
3.94042e-06
-1.65382e-08
3.91861e-06
3.29449e-08
3.93928e-06
-6.36028e-09
3.9171e-06
4.63495e-08
3.93996e-06
1.28207e-08
3.92193e-06
6.66617e-08
3.94312e-06
4.6658e-08
3.89754e-06
1.23492e-07
3.86485e-06
1.31043e-07
1.60091e-07
3.81698e-06
4.10878e-06
-2.06378e-07
4.12675e-06
1.57492e-07
4.11466e-06
-7.20692e-08
4.12546e-06
2.27351e-08
4.11348e-06
-3.69548e-08
4.12128e-06
-2.10272e-08
4.1146e-06
6.80629e-09
4.12112e-06
1.52805e-08
4.11805e-06
9.66142e-09
4.12221e-06
1.41083e-08
4.11777e-06
7.39636e-09
4.12406e-06
-9.61858e-10
4.11435e-06
1.08855e-09
4.12586e-06
1.92853e-09
4.11168e-06
2.88471e-09
4.1278e-06
7.16845e-09
4.11101e-06
8.31719e-09
4.12948e-06
7.93988e-09
4.11011e-06
4.54056e-09
4.12922e-06
6.66356e-09
4.10861e-06
4.07364e-09
4.1269e-06
1.4653e-08
4.10651e-06
1.40315e-08
4.1226e-06
3.0259e-08
4.10449e-06
3.09256e-08
4.12277e-06
4.83872e-08
4.11462e-06
5.48016e-08
4.16574e-06
7.23766e-08
4.21832e-06
7.84662e-08
8.95197e-08
4.28889e-06
4.30578e-06
-1.92858e-07
4.32351e-06
1.39761e-07
4.31211e-06
-6.06658e-08
4.32217e-06
1.2678e-08
4.31108e-06
-2.58729e-08
4.31779e-06
-2.7735e-08
4.31223e-06
1.23652e-08
4.31724e-06
1.0277e-08
4.31603e-06
1.08721e-08
4.31778e-06
1.23542e-08
4.31638e-06
8.79197e-09
4.31933e-06
-3.90665e-09
4.31249e-06
7.92717e-09
4.32219e-06
-7.77375e-09
4.30919e-06
1.58929e-08
4.32423e-06
-7.87355e-09
4.30863e-06
2.39151e-08
4.32602e-06
-9.45233e-09
4.3071e-06
2.34601e-08
4.32672e-06
-1.29497e-08
4.30476e-06
2.60313e-08
4.32535e-06
-5.94222e-09
4.30261e-06
3.67708e-08
4.32146e-06
1.14106e-08
4.29952e-06
5.28655e-08
4.31964e-06
2.82667e-08
4.31787e-06
5.65724e-08
4.36917e-06
2.10789e-08
4.41803e-06
2.96044e-08
8.60383e-09
4.49895e-06
4.51228e-06
-1.79362e-07
4.52939e-06
1.22653e-07
4.51933e-06
-5.06087e-08
4.52808e-06
3.92225e-09
4.51835e-06
-1.61336e-08
4.52365e-06
-3.30395e-08
4.51931e-06
1.67044e-08
4.52289e-06
6.69606e-09
4.52329e-06
1.04774e-08
4.5226e-06
1.3037e-08
4.52556e-06
5.83987e-09
4.52127e-06
3.76403e-10
4.52533e-06
3.87002e-09
4.52039e-06
-2.83342e-09
4.52547e-06
1.08075e-08
4.51937e-06
-1.76449e-09
4.52776e-06
1.55249e-08
4.51868e-06
-3.7574e-10
4.52769e-06
1.44447e-08
4.51775e-06
-3.00232e-09
4.52528e-06
1.84973e-08
4.51446e-06
4.87835e-09
4.52044e-06
3.07923e-08
4.51185e-06
2.00032e-08
4.51986e-06
4.48564e-08
4.51261e-06
3.55122e-08
4.51646e-06
5.27243e-08
4.48772e-06
4.98169e-08
4.44973e-06
6.75987e-08
6.61931e-08
4.39214e-06
4.72862e-06
-1.65867e-07
4.74567e-06
1.05601e-07
4.73535e-06
-4.02843e-08
4.74478e-06
-5.50762e-09
4.73457e-06
-5.92615e-09
4.74022e-06
-3.8686e-08
4.73539e-06
2.15305e-08
4.73936e-06
2.72093e-09
4.73919e-06
1.06549e-08
4.73909e-06
1.31301e-08
4.74224e-06
2.68993e-09
4.73607e-06
6.55214e-09
4.74424e-06
-4.29873e-09
4.73321e-06
8.19712e-09
4.74574e-06
-1.72731e-09
4.7314e-06
1.25761e-08
4.74805e-06
-1.12309e-09
4.73085e-06
1.68237e-08
4.74836e-06
-3.06155e-09
4.73019e-06
1.51602e-08
4.74706e-06
1.62775e-09
4.72861e-06
2.33279e-08
4.74618e-06
1.32254e-08
4.72964e-06
3.65421e-08
4.74361e-06
3.08893e-08
4.72179e-06
5.73306e-08
4.7192e-06
5.53163e-08
4.69416e-06
7.48522e-08
4.68793e-06
7.38272e-08
9.81655e-08
4.65596e-06
4.95557e-06
-1.52641e-07
4.97082e-06
9.03516e-08
4.96385e-06
-3.33149e-08
4.96916e-06
-1.08144e-08
4.96434e-06
-1.10462e-09
4.96381e-06
-3.81542e-08
4.96569e-06
1.96478e-08
4.96263e-06
5.77827e-09
4.96814e-06
5.14456e-09
4.96442e-06
1.68515e-08
4.96891e-06
-1.79628e-09
4.96386e-06
1.1602e-08
4.96885e-06
-9.29133e-09
4.9627e-06
1.43434e-08
4.96882e-06
-7.84545e-09
4.96268e-06
1.87193e-08
4.96875e-06
-7.19895e-09
4.96331e-06
2.22691e-08
4.9676e-06
-7.35402e-09
4.96116e-06
2.16059e-08
4.96376e-06
-9.78666e-10
4.9568e-06
3.02881e-08
4.95824e-06
1.17834e-08
4.95435e-06
4.04361e-08
4.9551e-06
3.01342e-08
4.95699e-06
5.54478e-08
4.95515e-06
5.7155e-08
4.92705e-06
1.02953e-07
4.88321e-06
1.17671e-07
1.35188e-07
4.84618e-06
5.1931e-06
-1.39423e-07
5.20901e-06
7.4438e-08
5.19952e-06
-2.38232e-08
5.20877e-06
-2.00618e-08
5.19954e-06
8.12596e-09
5.20407e-06
-4.26835e-08
5.19976e-06
2.39525e-08
5.20475e-06
7.93e-10
5.19887e-06
1.10218e-08
5.21131e-06
4.40992e-09
5.195e-06
1.45196e-08
5.21443e-06
-7.83303e-09
5.19233e-06
1.28087e-08
5.21463e-06
-7.95544e-09
5.19147e-06
1.53105e-08
5.21514e-06
-4.95031e-09
5.19113e-06
1.68097e-08
5.21632e-06
-2.91452e-09
5.19171e-06
1.72561e-08
5.21511e-06
-1.79197e-09
5.19258e-06
2.15482e-08
5.21241e-06
1.04576e-08
5.18968e-06
3.45109e-08
5.20116e-06
2.89617e-08
5.18051e-06
5.07831e-08
5.19228e-06
4.36772e-08
5.19831e-06
5.1119e-08
5.27084e-06
3.04312e-08
5.35848e-06
3.00212e-08
3.04177e-08
5.46326e-06
5.44245e-06
-1.26689e-07
5.45553e-06
6.13652e-08
5.45083e-06
-1.91274e-08
5.45394e-06
-2.31671e-08
5.45423e-06
7.83658e-09
5.44639e-06
-3.48442e-08
5.4569e-06
1.3443e-08
5.44485e-06
1.28402e-08
5.45719e-06
-1.31413e-09
5.44983e-06
1.1762e-08
5.4543e-06
1.00492e-08
5.45219e-06
-5.72013e-09
5.45258e-06
1.24186e-08
5.45158e-06
-6.94959e-09
5.45279e-06
1.40916e-08
5.4502e-06
-2.35227e-09
5.45232e-06
1.46866e-08
5.45017e-06
-7.61872e-10
5.45026e-06
1.71611e-08
5.44712e-06
1.34748e-09
5.44752e-06
2.11515e-08
5.44355e-06
1.44255e-08
5.44302e-06
3.50438e-08
5.44123e-06
3.07446e-08
5.44332e-06
4.86941e-08
5.44246e-06
4.45398e-08
5.43211e-06
6.14703e-08
5.4057e-06
5.68376e-08
5.36679e-06
6.89318e-08
6.88778e-08
5.32833e-06
5.70329e-06
-1.14024e-07
5.71686e-06
4.77962e-08
5.70937e-06
-1.16315e-08
5.71705e-06
-3.08482e-08
5.71241e-06
1.24695e-08
5.71042e-06
-3.2853e-08
5.71492e-06
8.94784e-09
5.70728e-06
2.04773e-08
5.71611e-06
-1.01439e-08
5.71105e-06
1.6819e-08
5.71565e-06
5.45783e-09
5.71062e-06
-6.90329e-10
5.71688e-06
6.15899e-09
5.70824e-06
1.68164e-09
5.71704e-06
5.29399e-09
5.70781e-06
6.87772e-09
5.71689e-06
5.60492e-09
5.70832e-06
7.80993e-09
5.71583e-06
9.65321e-09
5.70615e-06
1.10296e-08
5.71326e-06
1.40428e-08
5.70534e-06
2.23371e-08
5.71036e-06
3.00263e-08
5.70224e-06
3.88636e-08
5.7025e-06
4.84412e-08
5.68985e-06
5.7182e-08
5.6845e-06
6.68256e-08
5.66753e-06
7.3804e-08
5.65274e-06
8.37216e-08
9.14425e-08
5.63018e-06
5.97679e-06
-1.01625e-07
5.98982e-06
3.47722e-08
5.98241e-06
-4.22044e-09
5.98924e-06
-3.76779e-08
5.98745e-06
1.42599e-08
5.98234e-06
-2.775e-08
5.99019e-06
1.10219e-09
5.97902e-06
3.1644e-08
5.99054e-06
-2.16645e-08
5.9827e-06
2.46564e-08
5.99071e-06
-2.54363e-09
5.9815e-06
8.51805e-09
5.99237e-06
-4.71573e-09
5.98018e-06
1.38724e-08
5.98991e-06
-4.43581e-09
5.98209e-06
1.46976e-08
5.98747e-06
2.22281e-10
5.9817e-06
1.35855e-08
5.98505e-06
6.30579e-09
5.9792e-06
1.68726e-08
5.98174e-06
1.15014e-08
5.97828e-06
2.58036e-08
5.98119e-06
2.7112e-08
5.97619e-06
4.387e-08
5.97553e-06
4.9098e-08
5.96356e-06
6.91529e-08
5.95706e-06
7.33226e-08
5.94012e-06
9.07435e-08
5.9277e-06
9.61415e-08
1.06046e-07
5.9131e-06
6.26409e-06
-9.02227e-08
6.27304e-06
2.58145e-08
6.27148e-06
-2.66037e-09
6.27176e-06
-3.79542e-08
6.27736e-06
8.65769e-09
6.26615e-06
-1.65413e-08
6.27775e-06
-1.04968e-08
6.26569e-06
4.37069e-08
6.27592e-06
-3.18937e-08
6.27015e-06
3.04295e-08
6.27585e-06
-8.24983e-09
6.26861e-06
1.5762e-08
6.27865e-06
-1.47576e-08
6.26682e-06
2.57017e-08
6.27634e-06
-1.39587e-08
6.26746e-06
2.35787e-08
6.27405e-06
-6.36224e-09
6.26528e-06
2.23481e-08
6.27271e-06
-1.11764e-09
6.26401e-06
2.55683e-08
6.26803e-06
7.48092e-09
6.26156e-06
3.22749e-08
6.26413e-06
2.45458e-08
6.26177e-06
4.62284e-08
6.26934e-06
4.15236e-08
6.26567e-06
7.28229e-08
6.25695e-06
8.20494e-08
6.22157e-06
1.26116e-07
6.17248e-06
1.45232e-07
1.33119e-07
6.14541e-06
6.56303e-06
-7.77816e-08
6.58013e-06
8.71728e-09
6.56343e-06
1.40369e-08
6.57911e-06
-5.36364e-08
6.56486e-06
2.29055e-08
6.57839e-06
-3.00694e-08
6.56315e-06
4.7411e-09
6.58165e-06
2.5213e-08
6.56041e-06
-1.06582e-08
6.58545e-06
5.39111e-09
6.56072e-06
1.64764e-08
6.58319e-06
-6.70458e-09
6.56263e-06
5.80631e-09
6.58156e-06
6.76437e-09
6.56131e-06
6.29933e-09
6.58147e-06
3.41722e-09
6.56279e-06
1.23161e-08
6.5792e-06
5.93305e-09
6.56388e-06
1.42109e-08
6.57652e-06
1.29202e-08
6.56258e-06
2.14282e-08
6.57023e-06
2.46212e-08
6.55672e-06
3.80556e-08
6.55918e-06
4.37725e-08
6.54956e-06
5.11375e-08
6.57737e-06
4.50148e-08
6.61193e-06
4.74898e-08
6.69388e-06
4.41631e-08
6.79475e-06
4.4364e-08
6.12747e-08
6.8666e-06
6.88033e-06
-6.83187e-08
6.88289e-06
6.15117e-09
6.89081e-06
6.1175e-09
6.87828e-06
-4.11064e-08
6.89526e-06
5.92627e-09
6.87782e-06
-1.26275e-08
6.8933e-06
-1.07418e-08
6.88052e-06
3.79971e-08
6.89081e-06
-2.09494e-08
6.88307e-06
1.31361e-08
6.8918e-06
7.74476e-09
6.88142e-06
3.67244e-09
6.89187e-06
-4.6438e-09
6.88215e-06
1.64801e-08
6.88864e-06
-1.84399e-10
6.88168e-06
1.03713e-08
6.88791e-06
6.08681e-09
6.87891e-06
1.49362e-08
6.88331e-06
9.81141e-09
6.87611e-06
2.0124e-08
6.87965e-06
1.78796e-08
6.87866e-06
2.56198e-08
6.89105e-06
2.56574e-08
6.90181e-06
3.30126e-08
6.91385e-06
3.91e-08
6.90137e-06
5.74959e-08
6.87581e-06
7.3049e-08
6.82482e-06
9.51542e-08
6.75895e-06
1.1023e-07
8.54661e-08
6.73476e-06
7.20756e-06
-5.67398e-08
7.22544e-06
-1.17343e-08
7.20689e-06
2.46691e-08
7.22255e-06
-5.67615e-08
7.20569e-06
2.27825e-08
7.22592e-06
-3.28585e-08
7.20149e-06
1.36873e-08
7.23091e-06
8.58326e-09
7.20044e-06
9.51582e-09
7.22988e-06
-1.63e-08
7.20525e-06
3.23699e-08
7.22468e-06
-1.57521e-08
7.20635e-06
1.36805e-08
7.22455e-06
-1.72182e-09
7.20569e-06
1.86783e-08
7.22249e-06
-6.42581e-09
7.20817e-06
2.0403e-08
7.21935e-06
3.75994e-09
7.20665e-06
2.25091e-08
7.21561e-06
1.11612e-08
7.20532e-06
2.81772e-08
7.20974e-06
2.11975e-08
7.19778e-06
3.76181e-08
7.19845e-06
3.23391e-08
7.19883e-06
3.87187e-08
7.23019e-06
2.61379e-08
7.27756e-06
2.56787e-08
7.36134e-06
1.13698e-08
7.46523e-06
6.3405e-09
1.82241e-08
7.53248e-06
7.55611e-06
-4.86236e-08
7.55699e-06
-1.26126e-08
7.56573e-06
1.59253e-08
7.55122e-06
-4.2246e-08
7.5675e-06
6.49424e-09
7.5577e-06
-2.30553e-08