/*--------------------------------*- C++ -*----------------------------------*\
| =========                 |                                                 |
| \\      /  F ield         | OpenFOAM: The Open Source CFD Toolbox           |
|  \\    /   O peration     | Version:  v2006                                 |
|   \\  /    A nd           | Website:  www.openfoam.com                      |
|    \\/     M anipulation  |                                                 |
\*---------------------------------------------------------------------------*/
FoamFile
{
    version     2.0;
    format      ascii;
    class       volVectorField;
    location    "0.4";
    object      U;
}
// * * * * * * * * * * * * * * * * * * * * * * * * * * * * * * * * * * * * * //

dimensions      [0 1 -1 0 0 0 0];


internalField   nonuniform List<vector> 
26400
(
(0.897622 -0.00609929 0)
(1.09843 0.00848243 0)
(0.923861 -0.00452348 0)
(1.09601 0.00260254 0)
(0.904849 -0.00461341 0)
(1.09319 0.0033511 0)
(0.921417 -0.00208297 0)
(1.09608 0.00418184 0)
(0.927745 -0.00227506 0)
(1.0946 0.00328913 0)
(0.931238 -0.00205671 0)
(1.09583 0.00226193 0)
(0.936077 -0.00263923 0)
(1.09473 0.00145823 0)
(0.936315 -0.00207457 0)
(1.09164 0.00212269 0)
(0.936252 -0.00126792 0)
(1.0894 0.00181628 0)
(0.935782 -0.0017449 0)
(1.08874 0.000763408 0)
(0.934966 -0.00207902 0)
(1.08939 0.000522714 0)
(0.933446 -0.00138708 0)
(1.09096 0.000922457 0)
(0.931009 -0.000502751 0)
(1.09323 0.00100911 0)
(0.926217 -0.000120662 0)
(1.09491 0.000275303 0)
(0.917016 0.0012465 0)
(1.09547 0.000453379 0)
(0.904878 -0.00609398 0)
(1.09323 0.00828811 0)
(0.933304 -0.00458998 0)
(1.09055 0.00287794 0)
(0.916594 -0.00461621 0)
(1.08717 0.00323318 0)
(0.933336 -0.0022273 0)
(1.08888 0.00417247 0)
(0.941237 -0.00232565 0)
(1.08593 0.00330906 0)
(0.946277 -0.00215809 0)
(1.08517 0.00225262 0)
(0.952723 -0.00270431 0)
(1.08195 0.00151901 0)
(0.955038 -0.00208415 0)
(1.07625 0.00219762 0)
(0.958053 -0.00127684 0)
(1.07037 0.00188725 0)
(0.961503 -0.0017711 0)
(1.06495 0.000842105 0)
(0.965691 -0.00211146 0)
(1.05941 0.000593075 0)
(0.971081 -0.00143132 0)
(1.05261 0.000976973 0)
(0.978277 -0.000551607 0)
(1.04348 0.00107983 0)
(0.986456 -0.000103794 0)
(1.03004 0.000498926 0)
(0.994507 0.0021836 0)
(1.01014 0.00161712 0)
(0.917888 -0.00611358 0)
(1.08209 0.0080273 0)
(0.947658 -0.00460814 0)
(1.0787 0.00314084 0)
(0.93532 -0.00464708 0)
(1.07442 0.00307887 0)
(0.95251 -0.00233636 0)
(1.07458 0.00414282 0)
(0.962055 -0.0023392 0)
(1.0696 0.00328923 0)
(0.968612 -0.00220936 0)
(1.06637 0.00221233 0)
(0.976225 -0.00268837 0)
(1.06073 0.00153217 0)
(0.980234 -0.00199944 0)
(1.05301 0.00218442 0)
(0.985034 -0.0011533 0)
(1.04498 0.00182676 0)
(0.989573 -0.00161378 0)
(1.03744 0.000719038 0)
(0.994271 -0.00190133 0)
(1.03064 0.000376839 0)
(0.99929 -0.00114519 0)
(1.02427 0.000664486 0)
(1.0042 -0.000157197 0)
(1.01808 0.000724993 0)
(1.0071 0.000494172 0)
(1.0112 0.000468521 0)
(1.00614 0.00242022 0)
(1.00445 0.00390403 0)
(0.934655 -0.0061389 0)
(1.06625 0.00775768 0)
(0.963343 -0.00459293 0)
(1.06187 0.0032893 0)
(0.955577 -0.00463581 0)
(1.05696 0.00291121 0)
(0.972208 -0.00238624 0)
(1.05617 0.00405448 0)
(0.982071 -0.00228421 0)
(1.0501 0.00320758 0)
(0.988559 -0.00216835 0)
(1.0457 0.00211311 0)
(0.995309 -0.00258175 0)
(1.03943 0.00145911 0)
(0.998703 -0.00183814 0)
(1.03248 0.00208152 0)
(1.00234 -0.000954016 0)
(1.02577 0.00170101 0)
(1.0045 -0.00139274 0)
(1.01987 0.000567232 0)
(1.00625 -0.00167183 0)
(1.01561 0.000188181 0)
(1.00794 -0.000908011 0)
(1.01278 0.000455211 0)
(1.00916 0.000100305 0)
(1.01051 0.000555932 0)
(1.00842 0.000781262 0)
(1.00716 0.000542331 0)
(1.00482 0.00276135 0)
(1.00324 0.00609137 0)
(0.952416 -0.00615358 0)
(1.04844 0.00747482 0)
(0.977414 -0.00455148 0)
(1.04339 0.0033622 0)
(0.972905 -0.00457333 0)
(1.0387 0.00271895 0)
(0.987226 -0.00240479 0)
(1.03797 0.00392847 0)
(0.995768 -0.00218476 0)
(1.03241 0.00309521 0)
(1.00059 -0.00208266 0)
(1.02859 0.00199334 0)
(1.00502 -0.00244378 0)
(1.02346 0.00136631 0)
(1.00648 -0.00167584 0)
(1.01889 0.00197704 0)
(1.00811 -0.000772034 0)
(1.01476 0.00161168 0)
(1.0079 -0.00119715 0)
(1.01106 0.000480552 0)
(1.00743 -0.00149681 0)
(1.00884 8.46001e-05 0)
(1.00735 -0.00078599 0)
(1.00789 0.000407776 0)
(1.00732 0.000149206 0)
(1.00698 0.000772379 0)
(1.00587 0.000556247 0)
(1.00441 0.00152517 0)
(1.00236 0.00196061 0)
(1.00104 0.00858908 0)
(0.968431 -0.006153 0)
(1.0317 0.00720071 0)
(0.988013 -0.00447936 0)
(1.02676 0.00338838 0)
(0.985088 -0.0044922 0)
(1.02322 0.00252562 0)
(0.995798 -0.00240659 0)
(1.02315 0.00380025 0)
(1.00221 -0.00207636 0)
(1.01919 0.00298627 0)
(1.00492 -0.00199223 0)
(1.01678 0.00189289 0)
(1.0071 -0.00230891 0)
(1.01323 0.00129341 0)
(1.00694 -0.00154054 0)
(1.01078 0.00189464 0)
(1.00741 -0.000622077 0)
(1.0086 0.00155231 0)
(1.00628 -0.00102438 0)
(1.00627 0.000424866 0)
(1.00513 -0.00134374 0)
(1.00493 6.67299e-06 0)
(1.00458 -0.000688791 0)
(1.0045 0.000340249 0)
(1.00436 0.000250644 0)
(1.00389 0.000746956 0)
(1.00299 0.000837892 0)
(1.00156 0.00151376 0)
(0.99996 0.00299215 0)
(0.998755 0.00646563 0)
(0.980891 -0.00613402 0)
(1.01826 0.0069634 0)
(0.994741 -0.00438741 0)
(1.01418 0.0033813 0)
(0.992263 -0.00441005 0)
(1.01222 0.0023628 0)
(0.999142 -0.00239907 0)
(1.01274 0.00368528 0)
(1.00362 -0.00197681 0)
(1.01051 0.00289318 0)
(1.00474 -0.00190738 0)
(1.00938 0.00181409 0)
(1.00556 -0.00218106 0)
(1.007 0.00123204 0)
(1.0046 -0.00141982 0)
(1.00575 0.00180919 0)
(1.00478 -0.000483153 0)
(1.00471 0.00147702 0)
(1.00372 -0.000849902 0)
(1.0032 0.000338627 0)
(1.00263 -0.00115508 0)
(1.00217 -0.000125809 0)
(1.00197 -0.000484865 0)
(1.00179 0.000107638 0)
(1.00167 0.00056089 0)
(1.00123 0.000427079 0)
(1.0004 0.0014622 0)
(0.999193 0.0010302 0)
(0.997669 0.00454652 0)
(0.996858 0.00509191 0)
(0.989321 -0.00609515 0)
(1.00888 0.00676952 0)
(0.998325 -0.0042903 0)
(1.00606 0.00335578 0)
(0.995891 -0.00432951 0)
(1.00552 0.00223732 0)
(0.999601 -0.00238324 0)
(1.00617 0.00358308 0)
(1.00283 -0.00188804 0)
(1.00525 0.00281061 0)
(1.00309 -0.00182785 0)
(1.00493 0.00174476 0)
(1.00333 -0.0020605 0)
(1.00321 0.00117523 0)
(1.00211 -0.0013127 0)
(1.00253 0.00172411 0)
(1.00237 -0.000372837 0)
(1.00217 0.00140454 0)
(1.0017 -0.000712636 0)
(1.00122 0.0002733 0)
(1.00083 -0.00103351 0)
(1.00033 -0.000187649 0)
(1.00008 -0.000435185 0)
(0.999827 0.000165904 0)
(0.999659 0.000421367 0)
(0.999227 0.000854873 0)
(0.998457 0.000915206 0)
(0.997442 0.00237486 0)
(0.996176 0.00304307 0)
(0.995578 0.0105692 0)
(0.994316 -0.00603771 0)
(1.00311 0.00660993 0)
(0.999906 -0.00419463 0)
(1.00155 0.00331945 0)
(0.997549 -0.00424967 0)
(1.00194 0.00213955 0)
(0.999061 -0.00235452 0)
(1.00236 0.00348532 0)
(1.00164 -0.00180555 0)
(1.00226 0.00272702 0)
(1.00154 -0.00174804 0)
(1.00236 0.00167085 0)
(1.00161 -0.00193832 0)
(1.00101 0.00110997 0)
(1.00036 -0.00120278 0)
(1.00059 0.00162363 0)
(1.00077 -0.000267556 0)
(1.00065 0.00130722 0)
(1.00046 -0.000578567 0)
(1.0001 0.000197826 0)
(0.999789 -0.000896501 0)
(0.999276 -0.000256035 0)
(0.998939 -0.000347767 0)
(0.998607 0.000135407 0)
(0.998379 0.000485695 0)
(0.997907 0.000935316 0)
(0.99727 0.00100174 0)
(0.996291 0.00261842 0)
(0.995674 0.00276102 0)
(0.994927 0.0103944 0)
(0.996934 -0.00596404 0)
(0.999923 0.00647064 0)
(1.00046 -0.00410177 0)
(0.999431 0.00327149 0)
(0.998306 -0.00416657 0)
(1.00023 0.00205781 0)
(0.998461 -0.00231014 0)
(1.00032 0.00338304 0)
(1.00077 -0.00172379 0)
(1.00068 0.00263461 0)
(1.00053 -0.00166202 0)
(1.00098 0.00158395 0)
(1.00059 -0.00180696 0)
(0.999847 0.00102688 0)
(0.999378 -0.00107798 0)
(0.99957 0.00149459 0)
(0.999893 -0.000146333 0)
(0.999893 0.00116794 0)
(0.999839 -0.000422217 0)
(0.999602 7.30311e-05 0)
(0.999289 -0.000697072 0)
(0.998793 -0.000389339 0)
(0.998332 -0.000121485 0)
(0.997988 -8.5032e-05 0)
(0.997647 0.000917222 0)
(0.997221 0.000458297 0)
(0.996585 0.00205765 0)
(0.995763 0.00131481 0)
(0.995347 0.00445725 0)
(0.994963 0.00314703 0)
(0.99817 -0.00587649 0)
(0.998303 0.00633856 0)
(1.00059 -0.00401113 0)
(0.99862 0.00321017 0)
(0.998691 -0.00407507 0)
(0.999483 0.00198287 0)
(0.998058 -0.00225163 0)
(0.999306 0.00327311 0)
(1.00029 -0.0016414 0)
(0.999923 0.00253607 0)
(0.999994 -0.001574 0)
(1.0003 0.00149532 0)
(1.00007 -0.00168196 0)
(0.999308 0.000951781 0)
(0.998929 -0.000971815 0)
(0.999129 0.00138737 0)
(0.999515 -6.81817e-05 0)
(0.999592 0.00107306 0)
(0.999597 -0.000336397 0)
(0.999437 3.12649e-05 0)
(0.999105 -0.000630145 0)
(0.998622 -0.000356958 0)
(0.998068 -0.00012625 0)
(0.997724 5.41885e-05 0)
(0.997287 0.00082936 0)
(0.996937 0.000714657 0)
(0.996241 0.00204871 0)
(0.995637 0.00154444 0)
(0.994975 0.00464576 0)
(0.995438 0.00213146 0)
(0.998716 -0.00577713 0)
(0.997523 0.00620426 0)
(1.00057 -0.00392039 0)
(0.998413 0.00313458 0)
(0.998917 -0.00397047 0)
(0.999183 0.00190613 0)
(0.99783 -0.0021783 0)
(0.998833 0.00314978 0)
(1.00006 -0.00154973 0)
(0.999584 0.00242103 0)
(0.999737 -0.00146839 0)
(0.999974 0.00138402 0)
(0.999838 -0.00153283 0)
(0.999086 0.000843229 0)
(0.998781 -0.000829664 0)
(0.998977 0.00123323 0)
(0.999411 5.5421e-05 0)
(0.999494 0.000909444 0)
(0.999548 -0.000180288 0)
(0.999392 -9.56258e-05 0)
(0.999082 -0.000442789 0)
(0.998556 -0.000457162 0)
(0.998006 4.85966e-05 0)
(0.997591 -1.03133e-05 0)
(0.997192 0.000913662 0)
(0.996796 0.000855388 0)
(0.996191 0.00192533 0)
(0.99565 0.00221164 0)
(0.995086 0.00449623 0)
(0.99606 0.00660025 0)
(0.998956 -0.00566798 0)
(0.997162 0.00606323 0)
(1.00052 -0.00382716 0)
(0.998426 0.00304584 0)
(0.999055 -0.00385244 0)
(0.999074 0.00182609 0)
(0.997707 -0.00209473 0)
(0.998622 0.0030171 0)
(0.999957 -0.00145444 0)
(0.999444 0.00230194 0)
(0.999612 -0.00136245 0)
(0.999828 0.00127644 0)
(0.999734 -0.00139629 0)
(0.999015 0.000752541 0)
(0.998753 -0.000718475 0)
(0.998961 0.00112029 0)
(0.999399 0.000124431 0)
(0.999488 0.000818835 0)
(0.999539 -0.00012277 0)
(0.999401 -0.000103875 0)
(0.999077 -0.000409558 0)
(0.998558 -0.000355991 0)
(0.997984 -1.54309e-05 0)
(0.997563 0.000211718 0)
(0.997166 0.000724835 0)
(0.996774 0.00128149 0)
(0.996237 0.00161646 0)
(0.995792 0.00302813 0)
(0.995538 0.00411968 0)
(0.99649 0.0107746 0)
(0.999074 -0.00555018 0)
(0.997003 0.00591246 0)
(1.00047 -0.00372756 0)
(0.998488 0.00294337 0)
(0.999137 -0.00371916 0)
(0.999049 0.00173751 0)
(0.997647 -0.00199659 0)
(0.998532 0.00286874 0)
(0.999903 -0.00134667 0)
(0.999392 0.00216718 0)
(0.999538 -0.00123842 0)
(0.999766 0.00115062 0)
(0.999676 -0.00124138 0)
(0.99901 0.000638299 0)
(0.998759 -0.000583834 0)
(0.998997 0.000978198 0)
(0.999405 0.000226273 0)
(0.999506 0.000696102 0)
(0.999528 -2.2867e-05 0)
(0.999412 -0.000159769 0)
(0.999076 -0.000310046 0)
(0.998566 -0.000356614 0)
(0.997991 8.3927e-05 0)
(0.99756 0.000198184 0)
(0.997196 0.000916629 0)
(0.996793 0.00122591 0)
(0.996342 0.00210875 0)
(0.99596 0.00294031 0)
(0.996239 0.00452515 0)
(0.997042 0.00695313 0)
(0.999144 -0.00542449 0)
(0.996944 0.0057508 0)
(1.00042 -0.00362012 0)
(0.998538 0.00282878 0)
(0.999183 -0.00357191 0)
(0.999061 0.00163962 0)
(0.997631 -0.00188724 0)
(0.998495 0.00271076 0)
(0.999873 -0.00123315 0)
(0.999373 0.00202571 0)
(0.99949 -0.001111 0)
(0.99974 0.00102486 0)
(0.99964 -0.00109012 0)
(0.999029 0.000532043 0)
(0.998772 -0.000465405 0)
(0.999048 0.000852676 0)
(0.999406 0.000292925 0)
(0.999528 0.000603841 0)
(0.999497 3.91704e-05 0)
(0.999427 -0.000176931 0)
(0.999051 -0.000235416 0)
(0.998601 -0.000336131 0)
(0.997978 0.000184654 0)
(0.997619 0.000164326 0)
(0.997204 0.00117302 0)
(0.996898 0.00110792 0)
(0.996421 0.00268238 0)
(0.996167 0.00281405 0)
(0.996157 0.00521384 0)
(0.997602 0.00338089 0)
(0.999198 -0.00529152 0)
(0.996932 0.00557796 0)
(1.00038 -0.00350252 0)
(0.998559 0.00270064 0)
(0.99921 -0.00340956 0)
(0.999082 0.00152989 0)
(0.997653 -0.00176502 0)
(0.998475 0.00253879 0)
(0.999866 -0.00110695 0)
(0.999351 0.00187109 0)
(0.999468 -0.000971231 0)
(0.999709 0.000886744 0)
(0.999634 -0.000933171 0)
(0.999029 0.000420972 0)
(0.998812 -0.00034204 0)
(0.999067 0.000733548 0)
(0.999433 0.000354566 0)
(0.999507 0.000523739 0)
(0.999498 8.12874e-05 0)
(0.999394 -0.000156113 0)
(0.999073 -0.000218343 0)
(0.998586 -0.000220301 0)
(0.998028 0.000116409 0)
(0.997635 0.000429668 0)
(0.997288 0.00097225 0)
(0.996968 0.00158157 0)
(0.996581 0.00239401 0)
(0.996356 0.00361475 0)
(0.99636 0.00533556 0)
(0.998288 0.00763587 0)
(0.999241 -0.00515206 0)
(0.996948 0.00539355 0)
(1.00035 -0.00337309 0)
(0.998566 0.00256213 0)
(0.999219 -0.00323803 0)
(0.999114 0.00141395 0)
(0.997686 -0.00163634 0)
(0.998473 0.00236339 0)
(0.999857 -0.000981961 0)
(0.999341 0.00172011 0)
(0.999443 -0.000838904 0)
(0.999693 0.00076664 0)
(0.999622 -0.000798712 0)
(0.999041 0.000331081 0)
(0.998836 -0.000256157 0)
(0.999096 0.000668123 0)
(0.999439 0.0003637 0)
(0.999497 0.000522124 0)
(0.999477 5.11308e-05 0)
(0.999377 -4.20712e-05 0)
(0.999072 -0.000308059 0)
(0.998598 -1.82736e-05 0)
(0.998069 -6.21184e-05 0)
(0.997676 0.000823611 0)
(0.997372 0.000677909 0)
(0.99706 0.0021832 0)
(0.996758 0.0020096 0)
(0.99662 0.00444185 0)
(0.996886 0.00533039 0)
(0.998541 0.0121861 0)
(0.999277 -0.00500394 0)
(0.996985 0.00519448 0)
(1.0003 -0.00323202 0)
(0.998576 0.00241214 0)
(0.999211 -0.00305235 0)
(0.999161 0.00128206 0)
(0.997718 -0.00149111 0)
(0.998493 0.00217383 0)
(0.999842 -0.000844114 0)
(0.999347 0.0015575 0)
(0.99941 -0.000697287 0)
(0.999695 0.000633426 0)
(0.999602 -0.000645285 0)
(0.999066 0.000236344 0)
(0.998851 -0.000163227 0)
(0.999131 0.000566883 0)
(0.999437 0.00038587 0)
(0.99949 0.000472168 0)
(0.999452 7.62216e-05 0)
(0.999361 -4.29272e-05 0)
(0.999075 -0.000208268 0)
(0.998611 -2.20437e-05 0)
(0.998127 0.000165999 0)
(0.997724 0.000639493 0)
(0.997477 0.00112326 0)
(0.997162 0.00193412 0)
(0.996948 0.00277977 0)
(0.996917 0.00403759 0)
(0.99775 0.00545483 0)
(0.998966 0.00745529 0)
(0.999313 -0.00485022 0)
(0.997029 0.00498597 0)
(1.00026 -0.00307886 0)
(0.998587 0.00224478 0)
(0.999199 -0.00284762 0)
(0.999214 0.00113061 0)
(0.997754 -0.00133306 0)
(0.998525 0.00197223 0)
(0.999829 -0.000698248 0)
(0.999365 0.00138355 0)
(0.999376 -0.000544293 0)
(0.999711 0.000494413 0)
(0.999579 -0.00051598 0)
(0.999103 0.000159373 0)
(0.998854 -7.67389e-05 0)
(0.999178 0.000523417 0)
(0.999421 0.00038112 0)
(0.999502 0.000470814 0)
(0.999408 6.92597e-05 0)
(0.99938 -2.03104e-05 0)
(0.999052 -0.00014056 0)
(0.998676 -3.30549e-05 0)
(0.99813 0.000367703 0)
(0.99784 0.000485345 0)
(0.997542 0.00153067 0)
(0.997351 0.00173599 0)
(0.997091 0.00349285 0)
(0.997119 0.00381271 0)
(0.997496 0.00569547 0)
(0.999482 0.00321095 0)
(0.999357 -0.00469437 0)
(0.997065 0.0047698 0)
(1.00024 -0.00291729 0)
(0.998582 0.0020846 0)
(0.999201 -0.00265649 0)
(0.999246 0.00100833 0)
(0.997814 -0.0012043 0)
(0.998532 0.00181073 0)
(0.999846 -0.000597074 0)
(0.999354 0.00127115 0)
(0.999377 -0.000465059 0)
(0.999689 0.000447982 0)
(0.999597 -0.00045602 0)
(0.999098 0.000159676 0)
(0.998906 -0.000101418 0)
(0.999172 0.000528474 0)
(0.999455 0.000300766 0)
(0.999458 0.000509763 0)
(0.999418 -2.44758e-06 0)
(0.999336 0.000118205 0)
(0.999091 -0.00019911 0)
(0.998677 0.00017504 0)
(0.998216 0.000201417 0)
(0.9979 0.000870898 0)
(0.997685 0.00127166 0)
(0.997495 0.00227344 0)
(0.99732 0.00317079 0)
(0.997335 0.00474151 0)
(0.997652 0.00624031 0)
(1.00024 0.00811433 0)
(0.999398 -0.00451207 0)
(0.997109 0.00451321 0)
(1.00021 -0.00272283 0)
(0.998579 0.00187434 0)
(0.999195 -0.0024095 0)
(0.999283 0.00079826 0)
(0.997863 -0.00098248 0)
(0.998546 0.00154107 0)
(0.999853 -0.000388165 0)
(0.999351 0.00103032 0)
(0.999366 -0.000251379 0)
(0.999683 0.000241018 0)
(0.999598 -0.000250779 0)
(0.999102 1.31067e-05 0)
(0.99893 4.72188e-05 0)
(0.999186 0.000417929 0)
(0.999463 0.000328232 0)
(0.999439 0.000504829 0)
(0.999409 -1.23001e-05 0)
(0.999325 0.000210125 0)
(0.999107 -0.000317846 0)
(0.998702 0.000478699 0)
(0.998281 -4.57173e-05 0)
(0.997979 0.00143343 0)
(0.99782 0.000866581 0)
(0.997656 0.00301182 0)
(0.997587 0.00262571 0)
(0.997692 0.00576894 0)
(0.998222 0.00659868 0)
(1.00014 0.0133956 0)
(0.999422 -0.00436701 0)
(0.997177 0.00431502 0)
(1.00016 -0.0025792 0)
(0.998602 0.00173706 0)
(0.999168 -0.00223317 0)
(0.999346 0.000701602 0)
(0.99789 -0.000901539 0)
(0.998585 0.0014579 0)
(0.999838 -0.000382213 0)
(0.999377 0.00103686 0)
(0.999333 -0.000299602 0)
(0.999698 0.000349126 0)
(0.999585 -0.000399797 0)
(0.99913 0.000227829 0)
(0.998949 -0.000160478 0)
(0.999205 0.000671095 0)
(0.999468 8.7723e-05 0)
(0.999424 0.000730147 0)
(0.99939 -0.00018082 0)
(0.999304 0.000347805 0)
(0.999141 -0.000308336 0)
(0.998724 0.000489194 0)
(0.99838 0.000200784 0)
(0.998053 0.0012764 0)
(0.997977 0.00134312 0)
(0.997815 0.0027927 0)
(0.99787 0.00347526 0)
(0.998138 0.00521127 0)
(0.999286 0.00623441 0)
(1.0004 0.00749851 0)
(0.999445 -0.00414881 0)
(0.997255 0.00399114 0)
(1.0001 -0.00230874 0)
(0.998634 0.00145961 0)
(0.999143 -0.00193131 0)
(0.999415 0.000453127 0)
(0.997917 -0.000644207 0)
(0.998636 0.00114393 0)
(0.999824 -0.000128378 0)
(0.999412 0.000738982 0)
(0.9993 -3.12203e-05 0)
(0.999725 8.32455e-05 0)
(0.999566 -8.02307e-05 0)
(0.999171 -7.78579e-05 0)
(0.998947 0.000160676 0)
(0.999255 0.000143751 0)
(0.999441 0.000550116 0)
(0.999451 4.44363e-05 0)
(0.999336 0.000520993 0)
(0.999358 -0.00041151 0)
(0.999104 0.000653963 0)
(0.998829 -0.000455728 0)
(0.998386 0.00132765 0)
(0.99822 0.000123488 0)
(0.998076 0.00266409 0)
(0.998103 0.00161034 0)
(0.998058 0.00492966 0)
(0.998302 0.00400051 0)
(0.998693 0.00696076 0)
(1.00085 0.00299723 0)
(0.999486 -0.00399838 0)
(0.99731 0.00378334 0)
(1.00008 -0.00218009 0)
(0.998641 0.00134012 0)
(0.999146 -0.00176991 0)
(0.99945 0.000349887 0)
(0.997981 -0.00055641 0)
(0.998643 0.00106531 0)
(0.999852 -0.000142698 0)
(0.999403 0.000772869 0)
(0.999314 -0.000125555 0)
(0.999705 0.00025254 0)
(0.999598 -0.000331927 0)
(0.999157 0.000300303 0)
(0.998995 -0.000243426 0)
(0.999248 0.000738084 0)
(0.999478 -9.44263e-05 0)
(0.999424 0.000895083 0)
(0.999352 -0.000427418 0)
(0.99933 0.000768398 0)
(0.999156 -0.000688059 0)
(0.998844 0.00120185 0)
(0.998494 -0.000389028 0)
(0.998309 0.00225916 0)
(0.998267 0.000661726 0)
(0.99829 0.00391163 0)
(0.998374 0.00242306 0)
(0.998619 0.00661612 0)
(0.999077 0.00641389 0)
(1.00103 0.0138904 0)
(0.999514 -0.00378523 0)
(0.997386 0.00348561 0)
(1.00003 -0.00192358 0)
(0.998674 0.00107103 0)
(0.999123 -0.00147059 0)
(0.999513 0.000120471 0)
(0.998017 -0.000336505 0)
(0.998681 0.000835482 0)
(0.999851 2.27474e-05 0)
(0.999424 0.000619557 0)
(0.999298 1.66415e-05 0)
(0.999709 0.000152001 0)
(0.999608 -0.000243292 0)
(0.999175 0.00023344 0)
(0.999032 -0.000111831 0)
(0.999262 0.000523753 0)
(0.999498 0.000203294 0)
(0.999392 0.000525436 0)
(0.999362 8.18491e-05 0)
(0.999305 0.000234676 0)
(0.999224 5.4554e-05 0)
(0.998861 0.000566458 0)
(0.998629 0.000597524 0)
(0.998393 0.00140856 0)
(0.99846 0.00184122 0)
(0.998443 0.00303395 0)
(0.998715 0.0038544 0)
(0.99921 0.00523647 0)
(1.00052 0.00618732 0)
(1.00123 0.00755941 0)
(0.999549 -0.00361111 0)
(0.997465 0.00320889 0)
(0.999996 -0.00172311 0)
(0.998715 0.000919648 0)
(0.999108 -0.00129441 0)
(0.999578 2.37668e-05 0)
(0.998057 -0.000248078 0)
(0.998726 0.000726838 0)
(0.99985 4.39673e-05 0)
(0.999458 0.000543083 0)
(0.999273 2.68989e-05 0)
(0.999732 0.000103668 0)
(0.999599 -0.000116398 0)
(0.999221 9.31118e-05 0)
(0.999014 4.54197e-05 0)
(0.999334 0.00010053 0)
(0.999461 0.000549754 0)
(0.999459 -0.000117845 0)
(0.999294 0.000723117 0)
(0.999382 -0.000550559 0)
(0.999196 0.00105103 0)
(0.998992 -0.000583877 0)
(0.998636 0.00190706 0)
(0.998602 -7.50669e-05 0)
(0.998595 0.00335958 0)
(0.998774 0.00151481 0)
(0.998878 0.00574134 0)
(0.999207 0.00376432 0)
(0.999639 0.00692957 0)
(1.00169 0.0013354 0)
(0.999636 -0.00336611 0)
(0.997489 0.00288391 0)
(1.00002 -0.00148852 0)
(0.998691 0.000639462 0)
(0.999157 -0.000964825 0)
(0.99957 -0.000246486 0)
(0.998164 -3.67941e-06 0)
(0.998693 0.000479052 0)
(0.999924 0.000194697 0)
(0.999408 0.000419303 0)
(0.999329 0.000116605 0)
(0.999676 0.00011812 0)
(0.999673 -0.000259881 0)
(0.999174 0.000440426 0)
(0.999091 -0.000401356 0)
(0.999309 0.000896768 0)
(0.999521 -0.000349663 0)
(0.99941 0.0011072 0)
(0.999343 -0.000713915 0)
(0.999361 0.00117164 0)
(0.999257 -0.000857561 0)
(0.99903 0.00159925 0)
(0.998757 -0.000339676 0)
(0.998716 0.00252262 0)
(0.998821 0.000761213 0)
(0.999025 0.00406674 0)
(0.999265 0.00284009 0)
(0.999564 0.00723351 0)
(0.999913 0.00770041 0)
(1.00176 0.0138752 0)
(0.999689 -0.00325827 0)
(0.99755 0.00272645 0)
(0.999987 -0.00136519 0)
(0.998711 0.000565925 0)
(0.999165 -0.000899514 0)
(0.999598 -0.00025827 0)
(0.998231 -1.24096e-05 0)
(0.998696 0.000520618 0)
(0.999959 7.02092e-05 0)
(0.999398 0.000542784 0)
(0.999346 7.66629e-06 0)
(0.999633 0.000245695 0)
(0.999735 -0.000351272 0)
(0.999138 0.000530865 0)
(0.999174 -0.000466058 0)
(0.999275 0.000923537 0)
(0.999591 -0.000416496 0)
(0.999338 0.00117999 0)
(0.999411 -0.000742673 0)
(0.999294 0.00132776 0)
(0.999386 -0.000923761 0)
(0.999031 0.00190207 0)
(0.998935 -0.000469376 0)
(0.998783 0.00290265 0)
(0.999052 0.000523366 0)
(0.999223 0.00427866 0)
(0.999782 0.00221988 0)
(1.00048 0.00692059 0)
(1.00157 0.00696293 0)
(1.00118 0.0138497 0)
(0.999687 -0.00292016 0)
(0.997685 0.00221452 0)
(0.999904 -0.00101513 0)
(0.998786 0.000259999 0)
(0.999123 -0.000449807 0)
(0.999693 -0.000608538 0)
(0.998246 0.000333888 0)
(0.998757 0.000147189 0)
(0.999937 0.000435929 0)
(0.999455 0.000109559 0)
(0.999302 0.000430772 0)
(0.999682 -0.000336492 0)
(0.999706 0.000459356 0)
(0.999195 -0.000470778 0)
(0.999147 0.000732103 0)
(0.999352 -0.000530094 0)
(0.999565 0.00114706 0)
(0.999388 -0.000668035 0)
(0.999384 0.00122844 0)
(0.999358 -0.000868196 0)
(0.999392 0.0014304 0)
(0.999142 -0.000616519 0)
(0.999004 0.00210592 0)
(0.998949 0.00021855 0)
(0.999191 0.00324628 0)
(0.99945 0.00147015 0)
(1.00002 0.00442294 0)
(1.00087 0.00200319 0)
(1.00203 0.00385531 0)
(1.00164 0.000434438 0)
(0.999693 -0.00284218 0)
(0.997807 0.00218674 0)
(0.999852 -0.000993863 0)
(0.998866 0.000137104 0)
(0.999097 -0.000484306 0)
(0.999765 -0.000468368 0)
(0.998284 0.000171487 0)
(0.998804 0.000269583 0)
(0.99994 6.43977e-05 0)
(0.999493 0.000485375 0)
(0.999276 3.9156e-05 0)
(0.999722 0.000105696 0)
(0.999693 4.09687e-05 0)
(0.999257 -5.21274e-05 0)
(0.999137 0.000385596 0)
(0.99942 -8.04855e-05 0)
(0.999541 0.000715711 0)
(0.999441 -0.000160198 0)
(0.99935 0.000802329 0)
(0.999429 -0.000361353 0)
(0.999414 0.00107662 0)
(0.999274 -3.60477e-05 0)
(0.9991 0.00179396 0)
(0.999149 0.000864559 0)
(0.999344 0.00293599 0)
(0.999623 0.00209903 0)
(0.999904 0.00380443 0)
(1.00038 0.00191938 0)
(1.00105 0.00221422 0)
(1.0033 0.000357427 0)
(0.99974 -0.00260177 0)
(0.997895 0.00178081 0)
(0.999819 -0.000756506 0)
(0.998882 3.16623e-05 0)
(0.999123 -0.000197057 0)
(0.999804 -0.000821303 0)
(0.998352 0.000491138 0)
(0.998782 6.53752e-05 0)
(1 0.000390117 0)
(0.999487 0.000171879 0)
(0.999297 0.000256261 0)
(0.999711 -9.29843e-05 0)
(0.999719 0.000204523 0)
(0.999271 -0.000139548 0)
(0.999166 0.000366503 0)
(0.999428 -2.73324e-05 0)
(0.999577 0.000465295 0)
(0.999437 0.000148174 0)
(0.999373 0.000396907 0)
(0.999454 0.000120952 0)
(0.999484 0.000587722 0)
(0.999348 0.000555755 0)
(0.999236 0.0011958 0)
(0.999281 0.00141401 0)
(0.999532 0.00222285 0)
(0.999741 0.00260182 0)
(0.999989 0.00348515 0)
(1.00046 0.0041543 0)
(1.00164 0.00517908 0)
(1.0055 0.00644577 0)
(0.999753 -0.00228139 0)
(0.998015 0.00144119 0)
(0.99982 -0.000520279 0)
(0.998945 -0.000270602 0)
(0.999073 6.33074e-05 0)
(0.999869 -0.000792946 0)
(0.998424 0.000488574 0)
(0.998818 2.09559e-05 0)
(1.00001 0.000182999 0)
(0.999503 0.000437116 0)
(0.999299 -9.60297e-05 0)
(0.99974 0.000438112 0)
(0.999734 -0.000442528 0)
(0.999301 0.00063657 0)
(0.999193 -0.00051262 0)
(0.999453 0.000949255 0)
(0.99961 -0.000598445 0)
(0.99945 0.00124593 0)
(0.999388 -0.000708012 0)
(0.999496 0.0013092 0)
(0.999555 -0.000479312 0)
(0.999447 0.00183436 0)
(0.999355 0.000173907 0)
(0.999452 0.00260655 0)
(0.999711 0.00119064 0)
(1.00003 0.00372159 0)
(1.00043 0.00275667 0)
(1.00098 0.00662203 0)
(1.00186 0.0076891 0)
(1.00456 0.0127526 0)
(0.999764 -0.00240802 0)
(0.998147 0.00156702 0)
(0.999747 -0.000684384 0)
(0.998991 -6.4303e-05 0)
(0.999092 -0.000153554 0)
(0.999917 -0.000602667 0)
(0.998454 0.000236585 0)
(0.998801 0.000301692 0)
(1.00008 -2.66128e-05 0)
(0.999499 0.000516062 0)
(0.99933 -4.9693e-05 0)
(0.999706 0.00031439 0)
(0.999776 -0.000198781 0)
(0.99929 0.000373982 0)
(0.999246 -7.75129e-05 0)
(0.99944 0.000485722 0)
(0.999665 1.01132e-05 0)
(0.999434 0.000592394 0)
(0.999428 4.41701e-05 0)
(0.999524 0.000606581 0)
(0.999657 0.000380344 0)
(0.999529 0.00115112 0)
(0.999496 0.00109006 0)
(0.99958 0.00201139 0)
(0.999918 0.00218865 0)
(1.00024 0.00315244 0)
(1.00099 0.00333762 0)
(1.00215 0.00416273 0)
(1.00384 0.00429186 0)
(1.00459 0.00539957 0)
(0.999748 -0.00166351 0)
(0.9983 0.000639078 0)
(0.999713 -1.43085e-05 0)
(0.999105 -0.000719542 0)
(0.999013 0.000575101 0)
(1.00001 -0.0012383 0)
(0.998513 0.000889498 0)
(0.998877 -0.000302302 0)
(1.00003 0.000673199 0)
(0.999579 -0.000378596 0)
(0.999267 0.000954385 0)
(0.999791 -0.000868676 0)
(0.999736 0.00109892 0)
(0.999382 -0.000997398 0)
(0.999208 0.00125567 0)
(0.999531 -0.000945157 0)
(0.999633 0.00138954 0)
(0.999517 -0.000909211 0)
(0.999402 0.00152374 0)
(0.999636 -0.000839411 0)
(0.999704 0.00175682 0)
(0.999689 -0.000212143 0)
(0.999615 0.00248889 0)
(0.999824 0.000846331 0)
(1.00009 0.00365838 0)
(1.00045 0.00204842 0)
(1.00079 0.00442403 0)
(1.00133 0.00163677 0)
(1.0023 0.00244308 0)
(1.00568 -0.000149621 0)
(0.999809 -0.00221324 0)
(0.998374 0.00143528 0)
(0.999701 -0.000730006 0)
(0.999119 -3.44372e-05 0)
(0.999094 -0.000382236 0)
(0.999989 -2.09193e-05 0)
(0.998593 -0.000419945 0)
(0.998812 0.00097507 0)
(1.00011 -0.000799238 0)
(0.999578 0.00105344 0)
(0.999283 -0.000505279 0)
(0.999763 0.000632455 0)
(0.999773 -0.000466487 0)
(0.999358 0.000661824 0)
(0.99927 -0.00046069 0)
(0.999509 0.000860909 0)
(0.999688 -0.000434436 0)
(0.999521 0.000910077 0)
(0.999462 -0.000214592 0)
(0.999645 0.0010235 0)
(0.999832 2.50295e-05 0)
(0.999794 0.0015916 0)
(0.99981 0.000914753 0)
(1 0.00259407 0)
(1.00031 0.00213447 0)
(1.00057 0.00383904 0)
(1.00087 0.00330574 0)
(1.00155 0.00468471 0)
(1.00331 0.00468029 0)
(1.00779 0.00786981 0)
(0.999834 -0.00124978 0)
(0.998477 0.00011885 0)
(0.999686 0.000406418 0)
(0.999168 -0.00113496 0)
(0.999093 0.000944355 0)
(0.999994 -0.00135188 0)
(0.998698 0.000828737 0)
(0.998817 -0.000165575 0)
(1.00011 0.000407338 0)
(0.999602 -0.000292112 0)
(0.999258 0.000822752 0)
(0.999778 -0.000714075 0)
(0.999791 0.000850352 0)
(0.999366 -0.000582981 0)
(0.999296 0.000804499 0)
(0.999519 -0.000395688 0)
(0.999699 0.000854984 0)
(0.999556 -0.000353409 0)
(0.999491 0.0010499 0)
(0.999694 -0.000102273 0)
(0.99992 0.00127829 0)
(0.999938 0.000482514 0)
(0.999977 0.00213794 0)
(1.00021 0.00152931 0)
(1.00057 0.00328711 0)
(1.00087 0.0031541 0)
(1.00118 0.00528937 0)
(1.00189 0.00554459 0)
(1.00368 0.00715767 0)
(1.00823 0.00558474 0)
(0.999845 -0.00167965 0)
(0.998627 0.00084362 0)
(0.999668 -0.000503507 0)
(0.99924 -0.000187169 0)
(0.999118 -0.000383108 0)
(1.00001 0.000223483 0)
(0.99878 -0.000783379 0)
(0.998787 0.00162909 0)
(1.00014 -0.00147941 0)
(0.99967 0.00151139 0)
(0.999247 -0.000967859 0)
(0.999797 0.00118348 0)
(0.999818 -0.00114074 0)
(0.99938 0.00143974 0)
(0.999329 -0.0011226 0)
(0.999551 0.0014382 0)
(0.999721 -0.000874048 0)
(0.999606 0.00140154 0)
(0.999551 -0.00060513 0)
(0.999754 0.00160619 0)
(1.00003 -0.000237211 0)
(1.0001 0.00207553 0)
(1.00016 0.000711951 0)
(1.00044 0.00304666 0)
(1.00091 0.00188218 0)
(1.00137 0.00451668 0)
(1.00182 0.00425291 0)
(1.00237 0.00844781 0)
(1.00332 0.00982106 0)
(1.00663 0.0139275 0)
(0.999796 -0.0011916 0)
(0.998753 0.000159316 0)
(0.999588 0.000364032 0)
(0.999283 -0.00109752 0)
(0.999109 0.000647481 0)
(1.00001 -0.000811255 0)
(0.998862 0.000266697 0)
(0.998767 0.000408726 0)
(1.00007 -0.000119013 0)
(0.999706 8.49764e-05 0)
(0.999185 0.000499084 0)
(0.999773 -0.000240102 0)
(0.999831 0.000223296 0)
(0.999382 0.000206271 0)
(0.999295 0.000199587 0)
(0.999585 0.000169076 0)
(0.999697 0.000435723 0)
(0.999633 0.000257844 0)
(0.999557 0.000549888 0)
(0.999807 0.000556872 0)
(1.00008 0.000913189 0)
(1.00024 0.0010966 0)
(1.00032 0.00182135 0)
(1.00063 0.00225252 0)
(1.00114 0.00307398 0)
(1.0018 0.00349288 0)
(1.00282 0.00415349 0)
(1.00427 0.0043297 0)
(1.00612 0.00459871 0)
(1.00589 0.00396419 0)
(0.999712 -0.000959021 0)
(0.999066 -2.78741e-05 0)
(0.999482 0.000219618 0)
(0.99948 -0.000944383 0)
(0.999049 0.000357591 0)
(1.00015 -0.000511939 0)
(0.998851 1.89132e-05 0)
(0.998874 0.000599949 0)
(1 -0.000288756 0)
(0.999907 0.000118876 0)
(0.999107 0.0004478 0)
(0.999877 -0.000199829 0)
(0.999825 0.000160299 0)
(0.999484 0.000194413 0)
(0.999249 0.000233839 0)
(0.999707 6.04932e-05 0)
(0.999678 0.000495182 0)
(0.999736 0.000244341 0)
(0.999581 0.000607915 0)
(0.99996 0.000575291 0)
(1.00015 0.00101311 0)
(1.00049 0.00108121 0)
(1.00053 0.0017152 0)
(1.00099 0.0019155 0)
(1.00135 0.00255669 0)
(1.00188 0.00290615 0)
(1.00212 0.00396878 0)
(1.00255 0.00463177 0)
(1.00295 0.00571276 0)
(1.006 0.00617502 0)
(0.9998 -0.0012679 0)
(0.999008 0.000351053 0)
(0.999558 -8.48863e-05 0)
(0.999361 -0.000364275 0)
(0.999174 -0.000225957 0)
(1.00001 0.000119099 0)
(0.999033 -0.000587237 0)
(0.998736 0.00122555 0)
(0.999998 -0.000826668 0)
(0.999844 0.000623476 0)
(0.999124 -8.8668e-05 0)
(0.999735 0.000454297 0)
(0.99991 -0.00046839 0)
(0.99941 0.0008455 0)
(0.999261 -0.000254261 0)
(0.999661 0.000614786 0)
(0.999741 -4.91157e-05 0)
(0.999682 0.000863619 0)
(0.999657 0.000151489 0)
(0.999952 0.00114543 0)
(1.00025 0.000628843 0)
(1.00051 0.00160169 0)
(1.00063 0.00118279 0)
(1.00097 0.00212307 0)
(1.00156 0.00170349 0)