/*--------------------------------*- C++ -*----------------------------------*\
| =========                 |                                                 |
| \\      /  F ield         | OpenFOAM: The Open Source CFD Toolbox           |
|  \\    /   O peration     | Version:  v2006                                 |
|   \\  /    A nd           | Website:  www.openfoam.com                      |
|    \\/     M anipulation  |                                                 |
\*---------------------------------------------------------------------------*/
FoamFile
{
    version     2.0;
    format      ascii;
    class       volScalarField;
    location    "0.8";
    object      p;
}
// * * * * * * * * * * * * * * * * * * * * * * * * * * * * * * * * * * * * * //

dimensions      [0 2 -2 0 0 0 0];


internalField   nonuniform List<scalar> 
26400
(
-2.45534e-08
0.00228301
0.00211379
0.00236859
0.00191042
0.0021308
0.00171702
0.00214726
0.00196625
0.00217702
0.00176852
0.00213805
0.00207867
0.00240374
0.00197351
0.00210586
0.00209935
0.00259084
0.00250266
0.00266053
0.00247385
0.00295891
0.00321342
0.00391955
0.0042866
0.00506091
0.0057821
0.00730462
0.00909885
0.0117708
2.87827e-07
0.00228304
0.00211422
0.00236858
0.0019112
0.00213091
0.00171773
0.00214712
0.00196704
0.00217695
0.00176944
0.00213793
0.00208005
0.00240359
0.00197501
0.00210498
0.00210124
0.00258949
0.00250519
0.00265773
0.002477
0.00295372
0.00321836
0.00391024
0.00429646
0.00503801
0.00581467
0.00717486
0.009089
0.0110914
1.25868e-06
0.00228325
0.0021151
0.0023687
0.00191264
0.0021309
0.00171904
0.00214674
0.00196875
0.00217674
0.00177125
0.00213766
0.00208281
0.00240316
0.00197769
0.00210305
0.00210464
0.0025873
0.00250958
0.00265362
0.00248152
0.00294708
0.0032242
0.00390141
0.00430396
0.00501938
0.00580838
0.00709332
0.00897721
0.0104388
3.40746e-06
0.00228402
0.00211632
0.00236922
0.00191443
0.00213093
0.00172075
0.00214641
0.00197105
0.00217654
0.00177346
0.00213751
0.00208636
0.00240263
0.00198065
0.00210043
0.0021087
0.00258478
0.00251479
0.0026483
0.00248653
0.00293855
0.00323082
0.00389007
0.00431233
0.00499332
0.0058123
0.00698637
0.00875411
0.00989017
7.25275e-06
0.00228521
0.00211786
0.00236999
0.00191648
0.00213091
0.00172279
0.00214605
0.00197375
0.00217613
0.00177587
0.00213722
0.00209039
0.00240166
0.00198362
0.00209695
0.00211319
0.00258171
0.00252049
0.00264146
0.00249155
0.00292837
0.00323717
0.00387739
0.00431813
0.0049748
0.00578527
0.00689907
0.00840595
0.00944301
1.29823e-05
0.00228647
0.00211969
0.00237071
0.00191872
0.00213058
0.00172506
0.00214541
0.00197673
0.00217523
0.00177839
0.00213646
0.0020948
0.00239994
0.0019866
0.00209246
0.00211818
0.00257796
0.00252667
0.00263333
0.00249623
0.00291756
0.00324261
0.00386588
0.00431457
0.00496645
0.00572821
0.00682515
0.00803068
0.00889658
2.04364e-05
0.0022875
0.00212175
0.00237114
0.00192106
0.00212977
0.00172749
0.00214436
0.00197997
0.00217371
0.001781
0.00213509
0.0020997
0.0023974
0.00198975
0.00208687
0.00212393
0.00257343
0.00253362
0.00262353
0.0025013
0.00290503
0.00324897
0.00385138
0.00432175
0.00493076
0.0057018
0.0066614
0.00787013
0.00849066
2.92715e-05
0.00228818
0.00212402
0.00237119
0.00192354
0.0021284
0.0017301
0.00214289
0.00198355
0.00217155
0.00178382
0.00213315
0.00210523
0.00239408
0.00199319
0.00208025
0.00213062
0.00256814
0.00254139
0.00261175
0.00250654
0.00289069
0.00325552
0.00383455
0.00432015
0.00489897
0.00565034
0.00650278
0.00755005
0.00805081
3.91349e-05
0.00228852
0.0021265
0.00237091
0.00192624
0.0021265
0.00173298
0.00214105
0.00198756
0.00216877
0.00178698
0.00213068
0.00211155
0.00238998
0.00199698
0.00207264
0.0021383
0.00256262
0.00254977
0.0025996
0.00251081
0.00287805
0.00325759
0.0038333
0.00430075
0.00489769
0.00553881
0.00640728
0.0069179
0.00756253
4.97682e-05
0.00228859
0.00212924
0.00237036
0.00192927
0.00212411
0.00173619
0.00213884
0.00199212
0.00216534
0.0017906
0.00212763
0.00211883
0.00238495
0.00200132
0.00206383
0.00214701
0.00255622
0.00255892
0.00258543
0.00251494
0.00286097
0.00326203
0.00381012
0.00429333
0.00486278
0.00546931
0.00628169
0.00660364
0.00702053
6.10319e-05
0.00228844
0.00213228
0.0023696
0.00193275
0.00212123
0.00173982
0.00213624
0.00199729
0.00216123
0.00179476
0.00212398
0.00212714
0.00237896
0.00200617
0.00205389
0.00215665
0.00254947
0.00256825
0.00257043
0.00251805
0.00284515
0.00326468
0.0037899
0.0042901
0.00479688
0.00544022
0.00612066
0.00668716
0.00640761
7.2884e-05
0.0022881
0.00213566
0.00236866
0.00193679
0.00211785
0.00174392
0.0021332
0.00200317
0.00215634
0.00179956
0.00211964
0.00213656
0.00237194
0.00201143
0.00204283
0.00216728
0.0025424
0.00257756
0.00255479
0.00251939
0.00282917
0.0032644
0.00377541
0.00427484
0.00474278
0.0053775
0.00595198
0.00653261
0.00567882
8.53472e-05
0.0022875
0.00213942
0.0023675
0.00194148
0.00211392
0.00174854
0.00212967
0.00200981
0.00215058
0.00180503
0.00211461
0.0021471
0.00236393
0.00201701
0.0020307
0.00217866
0.00253531
0.00258642
0.0025386
0.00251848
0.00281369
0.0032594
0.00376161
0.00424573
0.00470247
0.0052736
0.00577621
0.00607705
0.00525994
9.84892e-05
0.00228657
0.00214359
0.00236611
0.00194693
0.00210938
0.00175372
0.00212558
0.00201726
0.00214391
0.00181119
0.00210887
0.0021587
0.002355
0.00202287
0.00201799
0.00219024
0.0025289
0.00259381
0.00252301
0.00251386
0.00280285
0.00324792
0.00375064
0.00420756
0.00465512
0.00515636
0.00559495
0.00539983
0.00467612
0.000112412
0.00228518
0.00214821
0.00236443
0.00195324
0.00210418
0.00175954
0.00212086
0.00202558
0.00213624
0.00181807
0.00210242
0.00217132
0.00234516
0.00202879
0.00200477
0.00220196
0.00252325
0.00259969
0.00250771
0.00250679
0.00278655
0.00324078
0.00372191
0.00417705
0.00457111
0.00504376
0.00542949
0.00547608
0.004278
0.000127244
0.00228315
0.00215332
0.0023624
0.00196052
0.00209825
0.00176604
0.00211544
0.00203478
0.00212754
0.00182565
0.00209533
0.0021848
0.00233445
0.00203442
0.00199153
0.00221309
0.00251891
0.00260337
0.00249329
0.00249634
0.00276841
0.00323212
0.00369015
0.0041407
0.004475
0.00491588
0.00522177
0.00531192
0.00355568
0.000143136
0.00228028
0.00215895
0.00235998
0.00196886
0.00209153
0.00177324
0.00210932
0.00204485
0.00211781
0.00183374
0.00208791
0.00219886
0.00232392
0.00203898
0.00197942
0.00222242
0.00251711
0.00260324
0.00248122
0.00247855
0.00276153
0.00320453
0.00367301
0.00407734
0.00439566
0.00474308
0.00496223
0.00479731
0.00330443
0.00016029
0.00227631
0.00216514
0.00235711
0.00197838
0.00208398
0.00178113
0.00210247
0.00205576
0.00210724
0.00184208
0.0020802
0.00221329
0.0023137
0.0020421
0.00196856
0.0022298
0.00251762
0.00260026
0.00246983
0.00245752
0.0027521
0.00317495
0.00364765
0.00400512
0.00430637
0.00456231
0.00466305
0.0039451
0.0028018
0.000178928
0.00227096
0.00217189
0.00235372
0.00198915
0.00207558
0.00178974
0.00209488
0.00206731
0.00209589
0.0018508
0.00207251
0.00222748
0.00230402
0.00204341
0.00195877
0.00223591
0.00251877
0.00259701
0.00245514
0.00244078
0.00272452
0.00315909
0.00359599
0.00394012
0.00416923
0.00439652
0.00450643
0.00419321
0.00246235
0.000199227
0.00226394
0.00217921
0.00234988
0.00200114
0.00206642
0.00179894
0.00208684
0.00207926
0.00208398
0.00185914
0.00206628
0.00224109
0.00229575
0.00204248
0.00195059
0.00224027
0.00252161
0.0025911
0.00243994
0.0024233
0.00269377
0.00313941
0.00353517
0.00386396
0.0040171
0.00420719
0.00427015
0.00406965
0.00164726
0.000221651
0.00225479
0.00218714
0.0023454
0.00201463
0.00205623
0.0018088
0.00207814
0.0020918
0.00207132
0.00186704
0.00205902
0.00225391
0.00228864
0.00203933
0.00194393
0.0022417
0.00252752
0.00258122
0.0024264
0.00239163
0.00267601
0.0030985
0.00348994
0.00376292
0.003879
0.00395065
0.00391052
0.00350669
0.00172784
0.000246189
0.00224328
0.00219553
0.00234047
0.00202937
0.00204566
0.00181865
0.00206977
0.0021036
0.0020606
0.00187305
0.00205693
0.00226247
0.00228584
0.00203133
0.00194286
0.00223724
0.00253881
0.00256697
0.00242026
0.00233718
0.0026655
0.00304056
0.00344371
0.00364384
0.00374432
0.00367949
0.00346319
0.0024473
0.00137876
0.00027352
0.00222883
0.00220447
0.00233498
0.00204546
0.00203448
0.00182881
0.00206118
0.00211487
0.0020495
0.00187901
0.0020502
0.00227365
0.00227944
0.00202813
0.00193219
0.00224688
0.00253325
0.00257
0.00238388
0.00233939
0.00259826
0.00302409
0.00334671
0.00353762
0.00352032
0.00346593
0.00334759
0.00304901
0.00112669
0.0003039
0.00221105
0.00221374
0.00232903
0.00206288
0.00202261
0.00183897
0.00205248
0.00212531
0.00203812
0.001883
0.00204554
0.00228299
0.00227531
0.00202164
0.00192339
0.00225036
0.00253458
0.00256082
0.00236192
0.00230819
0.00255646
0.0029772
0.00326782
0.00341084
0.00333313
0.00319638
0.00300604
0.00269738
0.000866813
0.000337367
0.00218979
0.00222295
0.00232302
0.00208123
0.00201209
0.00184773
0.00204763
0.00213194
0.00203526
0.00187848
0.00206105
0.0022824
0.00228078
0.00200576
0.0019295
0.00223425
0.00255656
0.00252781
0.00236313
0.00222556
0.00254879
0.0028839
0.00321134
0.00325677
0.00319887
0.00287325
0.00241216
0.00125027
0.000583688
0.000374586
0.00216453
0.00223203
0.00231671
0.00210057
0.00200458
0.00185593
0.00204295
0.00213857
0.00202435
0.00187989
0.00205602
0.00229675
0.00227022
0.00200696
0.00191118
0.00225727
0.00253966
0.00254626
0.00230205
0.00221581
0.00245768
0.002861
0.00308402
0.00311787
0.00293605
0.00269153
0.00246943
0.00215917
0.000341295
0.000416254
0.00213482
0.00224094
0.00230993
0.00212035
0.00199462
0.00186343
0.00203848
0.00214394
0.00201753
0.00187916
0.0020533
0.00230478
0.00226732
0.00199723
0.00189411
0.00226019
0.00252917
0.00253755
0.002246
0.00220468
0.00238242
0.00282081
0.00296849
0.00297224
0.00267362
0.00236807
0.00209525
0.00191521
0.000174221
0.000461296
0.00210164
0.00224841
0.00230523
0.00213952
0.00198807
0.00186637
0.00204328
0.00213924
0.00202811
0.00186252
0.00208572
0.00229044
0.00229057
0.00196402
0.00192783
0.00221627
0.00258442
0.00247343
0.00226456
0.00208369
0.00236431
0.00269988
0.00292112
0.0028038
0.00247315
0.00188413
0.00116815
0.000265653
0.000679676
0.000510962
0.0020637
0.00225475
0.00229961
0.00216175
0.00198213
0.00187315
0.00203923
0.00214461
0.00201714
0.00186502
0.00207802
0.00230446
0.00228175
0.0019561
0.00190688
0.00221925
0.00257785
0.00245351
0.00221775
0.00204601
0.00230731
0.00263349
0.00283133
0.0026681
0.00230627
0.00165095
0.000836604
-0.000150098
0.000337674
0.000566948
0.00201883
0.00225844
0.00229086
0.00218022
0.00197943
0.00187739
0.00203865
0.0021507
0.00200692
0.00187251
0.00206903
0.00233196
0.00226253
0.00196529
0.00187874
0.00224978
0.00255448
0.00246594
0.00214593
0.00200433
0.00221397
0.00257046
0.0026963
0.00254255
0.00217879
0.00178505
0.00136805
0.000875532
-0.00119707
0.000625181
0.00198248
0.00225378
0.00230259
0.00219601
0.00198044
0.00187806
0.00204064
0.00215275
0.0019995
0.00187286
0.0020681
0.00234709
0.00225361
0.00195912
0.00186203
0.00225872
0.00254362
0.00244918
0.00207987
0.0019394
0.00213207
0.0024842
0.00258821
0.00240978
0.00207821
0.00175675
0.00129097
0.000306113
-0.00339202
0.000690842
0.00192857
0.0022548
0.00226642
0.00222348
0.00198387
0.00188561
0.00204062
0.00215458
0.00199236
0.00186748
0.00207372
0.00234852
0.00226108
0.00193591
0.00186079
0.0022469
0.00256332
0.00241346
0.00203483
0.00185981
0.00205925
0.00240023
0.00249062
0.00226435
0.00183527
0.00133752
0.000809429
0.000103419
-0.00243772
0.000756207
0.00189399
0.00223184
0.00230943
0.0022216
0.00199877
0.00187414
0.00206424
0.00213643
0.00201267
0.00183682
0.00211066
0.00232963
0.00228313
0.00189998
0.00187394
0.00221187
0.00257237
0.00235599
0.00196757
0.00175845
0.00197927
0.00230787
0.00240611
0.00211143
0.00164986
0.000821519
-0.000343621
-0.00189009
-0.00257812
0.000832968
0.0018418
0.00222108
0.00225549
0.00225925
0.00199922
0.00189613
0.00204998
0.00215802
0.00198428
0.00186154
0.00208522
0.00236727
0.00226282
0.00190595
0.00184418
0.00224401
0.00255116
0.0023431
0.00187467
0.00167536
0.00187622
0.00219525
0.00225155
0.00196272
0.00150261
0.00103897
0.00058177
-0.000245526
-0.0034116
0.000902949
0.00181178
0.00218681
0.00228271
0.00226054
0.00201471
0.00189658
0.00205997
0.00215621
0.00197781
0.00185048
0.00208749
0.00237952
0.00225543
0.00188714
0.00182561
0.00223184
0.0025411
0.00229831
0.00179924
0.00158131
0.00176398
0.00206507
0.00209416
0.00181756
0.00140169
0.00101806
0.000356694
-0.00122238
-0.0055434
0.000980034
0.0017761
0.0021514
0.00226388
0.00227609
0.00202782
0.00190816
0.00206805
0.00216333
0.00197006
0.00184731
0.00209387
0.00238999
0.00225431
0.00186754
0.00181306
0.00223307
0.00253231
0.0022555
0.00170808
0.00147204
0.00165285
0.00193486
0.00192886
0.00160379
0.00114327
0.000724581
4.60876e-05
-0.00156942
-0.00594249
0.00106581
0.00174878
0.00211006
0.0022477
0.00229265
0.00203998
0.00191782
0.0020726
0.0021679
0.00195909
0.0018385
0.00209298
0.00239852
0.00225277
0.00184348
0.00179355
0.00222467
0.00251602
0.00220729
0.00161602
0.0013598
0.00154047
0.00181214
0.00175729
0.0013222
0.000693632
0.000116494
-0.000400032
-0.00118449
-0.00435862
0.00111196
0.00175627
0.00205789
0.00227144
0.00226322
0.00208903
0.00190391
0.00212055
0.0021531
0.0019728
0.00181235
0.00210927
0.0023972
0.00225251
0.00181146
0.00177027
0.00220709
0.00248906
0.00215135
0.00152784
0.00124087
0.00142152
0.00166268
0.00161245
0.00110511
0.000308872
-0.0008896
-0.00231626
-0.00406759
-0.00374095
0.00122791
0.00170754
0.00202772
0.00220411
0.00230802
0.00207879
0.00193911
0.00210786
0.00217791
0.00194481
0.00181871
0.00210087
0.00241644
0.0022419
0.00178854
0.00174602
0.00219852
0.0024615
0.00208988
0.00142262
0.00112808
0.00127524
0.00147694
0.00136195
0.000910137
0.00034025
-0.000131278
-0.000440219
-0.00079803
-0.00361356
0.00125222
0.0017431
0.00197839
0.00223687
0.00226796
0.00211815
0.00192893
0.00214865
0.00216684
0.00194866
0.00180091
0.00210923
0.00242044
0.00223378
0.00175707
0.00171006
0.00217689
0.00242826
0.0020146
0.00134085
0.00102073
0.00120866
0.00144634
0.00135495
0.000744114
-0.000275491
-0.00165362
-0.00321039
-0.00498182
-0.00431566
0.00136506
0.00169574
0.00196024
0.00216836
0.00229506
0.00210883
0.00197763
0.00214919
0.00219847
0.00192505
0.00179667
0.00210445
0.00242605
0.00222331
0.0017275
0.00167619
0.00214276
0.00238361
0.00194675
0.00123912
0.000928799
0.00111485
0.00135291
0.0012158
0.000674313
3.1885e-05
-0.000426734
-0.000787029
-0.00186801
-0.00583887
0.00142603
0.00169856
0.00193591
0.00214606
0.00229582
0.00211119
0.0019975
0.00215887
0.00220673
0.0019141
0.00178765
0.0021086
0.00242994
0.00220257
0.00168337
0.00163838
0.00211472
0.00235081
0.00188985
0.00114499
0.000834325
0.00101517
0.0012707
0.00115607
0.000657731
-1.55913e-05
-0.000727247
-0.00178762
-0.00388879
-0.00885065
0.00145441
0.0017248
0.00191404
0.00213139
0.00227867
0.00212406
0.0020094
0.00218847
0.00222117
0.00191472
0.00177375
0.00211216
0.00243095
0.00217949
0.00163949
0.0015884
0.00207547
0.00230897
0.00181856
0.00105786
0.000735666
0.000922265
0.00116578
0.00102556
0.000475436
-0.00025937
-0.0010613
-0.00220617
-0.00440941
-0.00937246
0.00158201
0.00168504
0.0018944
0.00209184
0.00226833
0.00211903
0.00202335
0.00220354
0.00224021
0.00190878
0.00176108
0.00211006
0.00242734
0.00215086
0.00158809
0.00154639
0.00205443
0.00227588
0.00176424
0.000971312
0.000649407
0.000833823
0.00104437
0.000805173
0.000115129
-0.000727796
-0.00142548
-0.00211715
-0.00350734
-0.00806557
0.00152671
0.00180329
0.00185969
0.00211771
0.00220511
0.00214976
0.00200176
0.00225868
0.0022346
0.00192239
0.00173497
0.00211142
0.0024158
0.00211346
0.00152525
0.0014819
0.00201582
0.00224481
0.00170404
0.00090833
0.000552489
0.000769808
0.000956225
0.000688024
-0.000268904
-0.00168389
-0.00336034
-0.0051304
-0.00704694
-0.00605818
0.00168111
0.00173761
0.00186128
0.00206715
0.00222211
0.00210814
0.00204241
0.00226322
0.00228651
0.00190303
0.00173643
0.00210526
0.00241797
0.00207463
0.00146091
0.00141835
0.00195218
0.00218012
0.00163198
0.000811137
0.000473974
0.000676039
0.000890607
0.000662346
-5.64037e-06
-0.000798236
-0.00150161
-0.00235418
-0.00427175
-0.00944215
0.00167862
0.00176023
0.00187431
0.00205401
0.00221522
0.00209224
0.00205612
0.00227987
0.00229486
0.00189434
0.00172038
0.00210165
0.00240682
0.002039
0.00139721
0.00135123
0.00189246
0.00211893
0.00156743
0.000730538
0.000402363
0.000616842
0.000883517
0.000700681
3.49412e-05
-0.000949974
-0.00213091
-0.00384915
-0.00677694
-0.0125771
0.00171021
0.0018234
0.00186835
0.00204967
0.00218505
0.00207503
0.00205171
0.00230504
0.00231275
0.00189322
0.00170934
0.00209639
0.00239585
0.00198987
0.00131604
0.00127571
0.0018257
0.00206459
0.00149749
0.000665015
0.000324479
0.000563317
0.000836958
0.000655056
-6.65758e-05
-0.00108536
-0.0022911
-0.00395509
-0.00692656
-0.0128754
0.00178116
0.00181115
0.00186546
0.00203956
0.00217269
0.00205611
0.00205028
0.00232456
0.00233007
0.00188816
0.00169309
0.00208879
0.0023781
0.00193362
0.00123614
0.001197
0.00176702
0.00201075
0.00143793
0.000587694
0.000246227
0.000489418
0.000767738
0.000571671
-0.000169917
-0.00122204
-0.00247615
-0.00426253
-0.00746511
-0.0137317
0.00178375
0.00184888
0.00188243
0.00204393
0.00216446
0.00203607
0.00204074
0.0023398
0.00234392
0.00187862
0.0016717
0.00207599
0.00236152
0.0018864
0.00115882
0.00112136
0.00170648
0.00195813
0.00137098
0.000504277
0.00015782
0.000403348
0.000679264
0.000471987
-0.000294457
-0.00139218
-0.00273074
-0.00465347
-0.00802117
-0.0144393
0.00183645
0.00187206
0.00188606
0.00204308
0.00215548
0.00201399
0.0020259
0.00234703
0.00235409
0.00186529
0.00164423
0.00205483
0.00234152
0.00183835
0.00108353
0.00104514
0.00164543
0.00190119
0.00129853
0.000413365
5.95817e-05
0.000305036
0.0005776
0.000355528
-0.000443078
-0.00159596
-0.00301431
-0.00503251
-0.00849528
-0.0149609
0.00186152
0.00188807
0.0018952
0.0020491
0.00215398
0.00199726
0.00200986
0.00234985
0.00235996
0.00184974
0.00161492
0.00203198
0.00231984
0.00179376
0.00101118
0.000970146
0.00158426
0.00184154
0.00122188
0.000315249
-4.81915e-05
0.000196131
0.000463707
0.000223314
-0.000609778
-0.00181249
-0.00329156
-0.00537288
-0.00887884
-0.0153584
0.00189276
0.00190861
0.00190659
0.00205908
0.00215582
0.00198172
0.00199029
0.00234599
0.00236096
0.00183011
0.00158059
0.00200068
0.00229103
0.00174602
0.000937941
0.000894935
0.0015226
0.00178163
0.00114279
0.000210705
-0.000165775
7.59942e-05
0.000338074
7.97171e-05
-0.000784864
-0.00202813
-0.00355051
-0.00566739
-0.00919904
-0.0156969
0.00192441
0.00192752
0.00191353
0.00206795
0.0021604
0.0019669
0.00196897
0.00233836
0.00235724
0.00180628
0.00154176
0.00196587
0.00225942
0.00169611
0.000863968
0.000818776
0.00146111
0.00172391
0.00106369
0.000101303
-0.000293136
-5.56004e-05
0.000203065
-6.92546e-05
-0.000959968
-0.00223541
-0.0037863
-0.00592208
-0.00946303
-0.0159658
0.00195356
0.00194648
0.00192016
0.00207671
0.00216818
0.00195473
0.00194715
0.002327
0.00235003
0.00177992
0.00150096
0.00192871
0.00222488
0.00164321
0.000784939
0.000736944
0.00139693
0.00166819
0.000986825
-1.10439e-05
-0.000429232
-0.000197486
6.12138e-05
-0.000218858
-0.0011292
-0.00242989
-0.00400136
-0.00615025
-0.0096996
-0.0162122
0.00198074
0.00196614
0.00192746
0.00208314
0.00217796
0.00194605
0.00192399
0.00231081
0.0023388
0.00175125
0.00145589
0.00188816
0.00218713
0.0015873
0.000701266
0.000646843
0.00132677
0.00161282
0.000915198
-0.000122092
-0.000570394
-0.00034738
-8.59449e-05
-0.000367523
-0.00129094
-0.00261113
-0.00420049
-0.00636098
-0.00991583
-0.0164342
0.00200562
0.00198612
0.00193657
0.0020875
0.00218758
0.00194023
0.00189936
0.0022906
0.00232361
0.00172089
0.00140829
0.00184423
0.00214822
0.00153055
0.000614693
0.000549229
0.00124761
0.00155509
0.000848463
-0.000227636
-0.000711913
-0.00050224
-0.000237626
-0.000515711
-0.00144521
-0.00278028
-0.00438603
-0.00655848
-0.0101188
-0.016636
0.00202649
0.00200624
0.00194827
0.00209052
0.00219362
0.00193666
0.00187603
0.00226737
0.00230458
0.00168772
0.00135859
0.00179709
0.00210807
0.00147387
0.00052687
0.000446159
0.00115808
0.00149015
0.000783049
-0.000326104
-0.000849054
-0.000657696
-0.000391974
-0.000663468
-0.00159366
-0.0029386
-0.00455805
-0.00674174
-0.0103107
-0.0168368
0.00204674
0.00202455
0.00196078
0.00209284
0.00219567
0.00193476
0.0018557
0.00224094
0.00228147
0.00165081
0.00130607
0.00174734
0.00206633
0.00141777
0.00043919
0.00034006
0.00106056
0.00141574
0.000715606
-0.000419118
-0.00097853
-0.000809032
-0.000545639
-0.000810568
-0.00173798
-0.00308818
-0.00471724
-0.00690932
-0.0104846
-0.0170181
0.00206713
0.00204031
0.0019726
0.00209686
0.00219415
0.00192991
0.00183806
0.00221468
0.00225492
0.00161121
0.00125023
0.00169472
0.00202291
0.00136196
0.000352065
0.000233181
0.00095857
0.00133314
0.000642684
-0.0005101
-0.00110099
-0.000953533
-0.000695258
-0.000955526
-0.00187892
-0.00323102
-0.00486553
-0.00706146
-0.0106335
-0.0171574
0.0020857
0.0020543
0.00198327
0.00210293
0.0021901
0.00191993
0.00182271
0.00219085
0.00222537
0.00156825
0.00119071
0.00163883
0.0019788
0.00130671
0.000265177
0.000126026
0.000855066
0.00124559
0.000563536
-0.00060207
-0.00121852
-0.00109033
-0.000837916
-0.0010955
-0.00201564
-0.00336779
-0.00500475
-0.00720281
-0.0107766
-0.0173062
0.00210287
0.00206708
0.00199105
0.00211015
0.00218748
0.00190461
0.00180497
0.00217019
0.0021946
0.00152096
0.00112738
0.00157987
0.00193456
0.00125288
0.000178198
1.7742e-05
0.000751377
0.00115686
0.00048092
-0.000696263
-0.00133342
-0.00122028
-0.000972525
-0.00122844
-0.0021469
-0.00349943
-0.00513811
-0.00733772
-0.0109131
-0.0174442
0.00211936
0.00207901
0.0019957
0.00211611
0.00218782
0.00188516
0.00178066
0.00215236
0.00216847
0.00147067
0.00105897
0.00151686
0.00188983
0.00120207
9.21542e-05
-9.26911e-05
0.000646586
0.00106953
0.00039879
-0.000791724
-0.00144774
-0.00134573
-0.00109954
-0.00135309
-0.00227087
-0.00362526
-0.00526604
-0.00746653
-0.0110414
-0.017571
0.00213359
0.00209066
0.00199815
0.00211856
0.00219083
0.00186625
0.00174664
0.00213179
0.00214914
0.00142136
0.000983913
0.00144748
0.00184316
0.0011557
1.0306e-05
-0.000204839
0.000538353
0.000982903
0.000320377
-0.00088479
-0.0015612
-0.00146879
-0.00122068
-0.00146931
-0.00238607
-0.0037435
-0.00538736
-0.00758846
-0.0111623
-0.0176904
0.00214543
0.00210182
0.00199978
0.00211659
0.00219495
0.00185192
0.00170677
0.00210233
0.00213453
0.00138093
0.000905454
0.00136773
0.00179116
0.00111395
-6.34072e-05
-0.000315998
0.000424947
0.00089369
0.000246551
-0.000971072
-0.00167092
-0.00159011
-0.00133856
-0.0015788
-0.00249233
-0.00385264
-0.0055002
-0.00770165
-0.0112741
-0.0178047
0.00215542
0.00211187
0.00200122
0.00211023
0.0021965
0.00184331
0.00166771
0.00206247
0.00211774
0.00135203
0.000830132
0.00127644
0.0017281
0.00107419
-0.000125137
-0.000420765
0.000306673
0.000798069
0.000174396
-0.00104849
-0.00177285
-0.00170816
-0.00145473
-0.00168395
-0.00259044
-0.00395178
-0.00560321
-0.00780503
-0.0113731
-0.0178991
0.00216313
0.00212017
0.00200324
0.00210111
0.00219292
0.00184012
0.00163497
0.00201437
0.00209089
0.00133144
0.000768157
0.00117949
0.00164845
0.00103049
-0.00017454
-0.000513151
0.00018755
0.000693908
9.98659e-05
-0.00111781
-0.00186369
-0.00181973
-0.00156887
-0.00178688
-0.00268254
-0.00404184
-0.00569674
-0.00790046
-0.0114662
-0.0179906
0.00216846
0.00212626
0.00200583
0.00209107
0.00218375
0.00183692
0.00160967
0.0019635
0.00205156
0.00131109
0.000722276
0.00108744
0.00155415
0.000974654
-0.000216737
-0.000588948
7.48567e-05
0.000582436
1.85722e-05
-0.00118283
-0.00194264
-0.00192133
-0.0016789
-0.0018886
-0.00277152
-0.00412537
-0.00578276
-0.00799036
-0.0115558
-0.0180777
0.00217166
0.00212988
0.0020082
0.00208191
0.00216938
0.00183006
0.001591
0.0019172
0.00200318
0.00128263
0.000687729
0.00101166
0.00145436
0.000901712
-0.000260153
-0.00064928
-2.42118e-05
0.000469512
-7.18753e-05
-0.00124903
-0.00201196
-0.00201075
-0.00178186
-0.0019886
-0.00285962
-0.00420508
-0.0058626
-0.00807505
-0.0116456
-0.0181714
0.00217328
0.00213093
0.00200911
0.00207382
0.00215202
0.00181775
0.00157564
0.0018781
0.00195097
0.00124404
0.000656439
0.000953535
0.00136217
0.000816033
-0.000313621
-0.000700913
-0.000106344
0.000363392
-0.000169091
-0.00132107
-0.00207641
-0.00208833
-0.00187484
-0.0020846
-0.00294723
-0.00428336
-0.00593816
-0.00815383
-0.0117286
-0.0182563
0.00217387
0.00212971
0.00200745
0.00206634
0.00213424
0.00180045
0.00155964
0.00184553
0.00190089
0.00119829
0.000620901
0.000907209
0.00128644
0.000727744
-0.000380183
-0.000752186
-0.000173949
0.000270571
-0.000266439
-0.00139996
-0.00214102
-0.00215703
-0.00195653
-0.00217365
-0.00303278
-0.00436082
-0.00601066
-0.00822691
-0.0118042
-0.0183331
0.00217318
0.00212683
0.00200347
0.00205889
0.0021174
0.00177962
0.00154089
0.00181763
0.00185606
0.0011495
0.000579719
0.000865445
0.00122602
0.000647092
-0.00045491
-0.000808891
-0.000232734
0.000192723
-0.000356884
-0.00148251
-0.0022087
-0.00222108
-0.00202806
-0.00225359
-0.00311354
-0.00443609
-0.00608003
-0.00829405
-0.011872
-0.0184025
0.00217124
0.00212284
0.00199759
0.00205073
0.00210175
0.00175744
0.00151924
0.00179206
0.00181694
0.00110171
0.00053507
0.000823302
0.00117535
0.000578783
-0.000529665
-0.000871567
-0.000288481
0.000127174
-0.00043624
-0.00156323
-0.00227885
-0.00228354
-0.00209195
-0.00232379
-0.00318702
-0.00450708
-0.00614593
-0.00835637
-0.0119338
-0.0184658
0.00216827
0.00211799
0.00199036
0.00204161
0.00208716
0.00173585
0.00149587
0.00176701
0.00178266
0.00105747
0.000489839
0.000780324
0.00112937
0.000521152
-0.000598113
-0.000936321
-0.000344282
6.98247e-05
-0.000503977
-0.00163733
-0.00234835
-0.0023452
-0.00215075
-0.0023854
-0.00325223
-0.00457224
-0.00620784
-0.00841472
-0.0119908
-0.0185236
0.00216439
0.00211255
0.00198244
0.00203173
0.00207336
0.00171577
0.00147225
0.00174211
0.00175207
0.00101781
0.000446375
0.000737875
0.00108587
0.000471041
-0.000657829
-0.000998176
-0.00039993
1.70847e-05
-0.000562099
-0.00170244
-0.00241354
-0.00240485
-0.00220594
-0.00244031
-0.00330953
-0.00463066
-0.00626481
-0.00846895
-0.0120433
-0.0185765
0.00215993
0.00210681
0.00197437
0.00202158
0.00206031
0.00169752
0.00144974
0.00171795
0.00172441
0.000982909
0.00040639
0.000697521
0.00104497
0.000426261
-0.000709274
-0.00105372
-0.000453045
-3.24707e-05
-0.000613121
-0.00175844
-0.00247177
-0.00246038
-0.00225751
-0.00249003
-0.00336006
-0.00468239
-0.00631623
-0.00851867
-0.0120913
-0.0186243
0.00215524
0.00210109
0.00196664
0.00201177
0.00204816
0.00168135
0.00142941
0.00169544
0.00169943
0.00095265
0.000371125
0.000660815
0.00100764
0.000386212
-0.000753621
-0.00110161
-0.000500865
-7.8007e-05
-0.000658354
-0.00180621
-0.00252185
-0.0025098
-0.00230441
-0.00253495
-0.00340469
-0.00472774
-0.00636184
-0.00856357
-0.012135
-0.0186676
0.00215066
0.00209579
0.00195978
0.00200297
0.00203732
0.00166748
0.00141207
0.00167568
0.00167754
0.000927013
0.000341407
0.00062923
0.000975197
0.000351679
-0.000790989
-0.00114136
-0.000541364
-0.000117507
-0.000697117
-0.00184585
-0.00256304
-0.00255133
-0.00234477
-0.00257379
-0.00344277
-0.00476603
-0.00640062
-0.00860261
-0.0121742
-0.0187071
0.00214673
0.00209123
0.00195402
0.00199567
0.00202828
0.00165617
0.00139819
0.0016597
0.00165964
0.000906492
0.000318004
0.000603942
0.000948791
0.000323897
-0.0008202
-0.0011718
-0.000572816
-0.000148955
-0.000727739
-0.00187613
-0.00259399
-0.00258306
-0.00237638
-0.00260449
-0.00347255
-0.00479551
-0.00643039
-0.00863287
-0.0122048
-0.018738
0.00214386
0.00208775
0.00194948
0.00198983
0.00202082
0.00164664
0.00138642
0.00164563
0.00164295
0.000887167
0.000296259
0.000579794
0.000922553
0.000296419
-0.000848251
-0.00120065
-0.000603161
-0.00018044
-0.000759067
-0.00190686
-0.00262486
-0.00261474
-0.00240858
-0.00263631
-0.00350326
-0.00482501
-0.00645901
-0.00866109
-0.0122336
-0.0187702
0.0138208
0.0135403
0.0120734
0.00992485
0.00715286
0.0038811
0.000276173
-0.0032903
-0.00610761
-0.00754144
-0.0076001
-0.00682856
-0.00580678
-0.00486933
-0.0041422
-0.00363538
-0.00330898
-0.00311365
-0.00300684
-0.00295436
-0.00292977
-0.00291469
-0.00289881
-0.00287775
-0.00285083
-0.00281892
-0.00278369
-0.00274691
-0.00271022
-0.00267483
-0.00264154
-0.00261071
-0.00258241
-0.00255652
-0.00253285
-0.00251129
-0.00249161
-0.0024738
-0.00245762
-0.00244311
-0.00243
-0.00241835
-0.00240787
-0.00239864
-0.00239039
-0.0023832
-0.00237687
-0.00237148
-0.00236687
-0.00236307
-0.00236
-0.00235766
-0.00235602
-0.00235505
-0.00235476
-0.00235508
-0.00235608
-0.00235762
-0.00235977
-0.00236237
-0.00236552
-0.00236906
-0.00237311
-0.00237751
-0.00238236
-0.00238755
-0.00239313
-0.00239902
-0.00240521
-0.00241171
-0.00241846
-0.00242556
-0.00243286
-0.00244054
-0.00244838
-0.0024566
-0.00246495
-0.00247367
-0.00248251
-0.00249175
-0.00250112
-0.00251086
-0.00252075
-0.00253094
-0.00254132
-0.00255197
-0.00256284
-0.00257392
-0.00258525
-0.00259674
-0.00260851
-0.0026204
-0.00263262
-0.00264496
-0.00265764
-0.00267047
-0.0026836
-0.00269688
-0.00271038
-0.00272407
-0.00273793
-0.00275201
-0.00276617
-0.00278057
-0.00279496
-0.00280962
-0.00282428
-0.00283925
-0.00285423
-0.0028695
-0.00288478
-0.00290031
-0.00291591
-0.00293171
-0.00294767
-0.0029638
-0.00298018
-0.0029967
-0.00301349
-0.00303041
-0.00304761
-0.00306488
-0.00308234
-0.00309983
-0.00311744
-0.00313513
-0.00315293
-0.00317093
-0.00318904
-0.00320743
-0.00322586
-0.00324454
-0.0032632
-0.00328206
-0.00330093
-0.00331999
-0.00333914
-0.00335846
-0.00337791
-0.00339748
-0.00341716
-0.00343686
-0.00345664
-0.00347646
-0.00349639
-0.00351646
-0.00353664
-0.00355698
-0.00357731
-0.00359778
-0.00361818
-0.00363877
-0.00365936
-0.00368015
-0.00370096
-0.00372186
-0.00374275
-0.00376362
-0.00378453
-0.00380542
-0.00382643
-0.0038474
-0.00386842
-0.00388936
-0.00391028
-0.00393118
-0.00395206
-0.00397301
-0.00399391
-0.00401491
-0.0040358
-0.00405679
-0.00407775
-0.00409878
-0.00411985
-0.00414089
-0.00416196
-0.00418291
-0.00420388
-0.00422468
-0.00424545
-0.00426607
-0.00428655
-0.00430697
-0.00432719
-0.00434738
-0.0043673
-0.00438714
-0.00440669
-0.00442608