/*--------------------------------*- C++ -*----------------------------------*\
| =========                 |                                                 |
| \\      /  F ield         | OpenFOAM: The Open Source CFD Toolbox           |
|  \\    /   O peration     | Version:  v2006                                 |
|   \\  /    A nd           | Website:  www.openfoam.com                      |
|    \\/     M anipulation  |                                                 |
\*---------------------------------------------------------------------------*/
FoamFile
{
    version     2.0;
    format      ascii;
    class       surfaceScalarField;
    location    "0.8";
    object      phi;
}
// * * * * * * * * * * * * * * * * * * * * * * * * * * * * * * * * * * * * * //

dimensions      [0 3 -1 0 0 0 0];
oriented        oriented;


internalField   nonuniform List<scalar> 
52390
(
1.1701e-06
-3.326e-07
1.16995e-06
2.90767e-07
1.17302e-06
-2.48906e-07
1.17304e-06
2.24669e-07
1.17703e-06
-2.13486e-07
1.17723e-06
1.49436e-07
1.18027e-06
-1.67137e-07
1.1798e-06
1.27289e-07
1.18271e-06
-1.20453e-07
1.18264e-06
1.10057e-07
1.18551e-06
-1.04048e-07
1.18529e-06
8.36736e-08
1.18828e-06
-9.84429e-08
1.18808e-06
5.63947e-08
1.19095e-06
-8.58498e-08
1.18997e-06
3.34003e-08
1.19254e-06
-6.51418e-08
1.19118e-06
1.91208e-08
1.19386e-06
-4.99841e-08
1.19193e-06
1.78766e-08
1.19457e-06
-4.0208e-08
1.19169e-06
1.81237e-08
1.19448e-06
-2.58168e-08
1.19118e-06
1.402e-08
1.194e-06
-1.60743e-08
1.19004e-06
1.14807e-08
1.19269e-06
-7.08202e-09
1.18605e-06
6.57942e-09
1.1816e-06
2.04283e-08
2.49208e-08
1.15314e-06
1.22721e-06
-3.35551e-07
1.22762e-06
2.90357e-07
1.23149e-06
-2.52775e-07
1.23202e-06
2.2414e-07
1.23636e-06
-2.17823e-07
1.2369e-06
1.4889e-07
1.23991e-06
-1.70144e-07
1.23974e-06
1.27459e-07
1.2423e-06
-1.23014e-07
1.24291e-06
1.09444e-07
1.24512e-06
-1.06253e-07
1.24563e-06
8.31596e-08
1.24758e-06
-1.00394e-07
1.24859e-06
5.53832e-08
1.25015e-06
-8.74043e-08
1.25067e-06
3.28784e-08
1.25112e-06
-6.55955e-08
1.25191e-06
1.83306e-08
1.2518e-06
-4.98694e-08
1.25321e-06
1.64703e-08
1.25176e-06
-3.87657e-08
1.2536e-06
1.62897e-08
1.25058e-06
-2.27969e-08
1.25377e-06
1.08296e-08
1.24884e-06
-1.11429e-08
1.25325e-06
7.06194e-09
1.24618e-06
-1.15151e-11
1.24933e-06
3.43445e-09
1.23734e-06
3.24149e-08
4.02146e-08
1.22205e-06
1.28564e-06
-3.38406e-07
1.28914e-06
2.86858e-07
1.29181e-06
-2.55451e-07
1.29487e-06
2.21088e-07
1.29745e-06
-2.20409e-07
1.30037e-06
1.45969e-07
1.3013e-06
-1.71071e-07
1.30355e-06
1.25209e-07
1.30369e-06
-1.23154e-07
1.30668e-06
1.06462e-07
1.30608e-06
-1.05662e-07
1.30909e-06
8.01538e-08
1.30797e-06
-9.92767e-08
1.31167e-06
5.16863e-08
1.3099e-06
-8.56378e-08
1.31326e-06
2.95231e-08
1.31033e-06
-6.26719e-08
1.31393e-06
1.47329e-08
1.31057e-06
-4.65058e-08
1.31455e-06
1.24858e-08
1.31013e-06
-3.43467e-08
1.31401e-06
1.24151e-08
1.30895e-06
-1.77416e-08
1.31274e-06
7.04311e-09
1.30766e-06
-6.06091e-09
1.31041e-06
4.30551e-09
1.3061e-06
4.30583e-09
1.30342e-06
6.11648e-09
1.30046e-06
3.53704e-08
6.28533e-08
1.27782e-06
1.34602e-06
-3.40326e-07
1.35223e-06
2.80651e-07
1.35324e-06
-2.56457e-07
1.35858e-06
2.15742e-07
1.35911e-06
-2.20932e-07
1.36418e-06
1.40891e-07
1.36303e-06
-1.69917e-07
1.36728e-06
1.20963e-07
1.36535e-06
-1.21225e-07
1.36987e-06
1.01937e-07
1.36717e-06
-1.02956e-07
1.37144e-06
7.58776e-08
1.36837e-06
-9.62005e-08
1.37312e-06
4.69327e-08
1.36972e-06
-8.22358e-08
1.37381e-06
2.54337e-08
1.36988e-06
-5.87459e-08
1.37368e-06
1.09318e-08
1.37006e-06
-4.28815e-08
1.37363e-06
8.91378e-09
1.3696e-06
-3.03183e-08
1.37249e-06
9.52333e-09
1.36863e-06
-1.38786e-08
1.37068e-06
4.99235e-09
1.36761e-06
-2.98712e-09
1.36796e-06
3.95598e-09
1.36619e-06
6.0691e-09
1.3608e-06
1.15135e-08
1.36016e-06
3.60096e-08
8.62294e-08
1.33678e-06
1.40876e-06
-3.40736e-07
1.41647e-06
2.72948e-07
1.41577e-06
-2.5576e-07
1.42234e-06
2.09173e-07
1.42116e-06
-2.19754e-07
1.42731e-06
1.34737e-07
1.42482e-06
-1.67422e-07
1.42987e-06
1.15916e-07
1.42696e-06
-1.18322e-07
1.43174e-06
9.71567e-08
1.42827e-06
-9.94828e-08
1.43247e-06
7.16777e-08
1.42894e-06
-9.26729e-08
1.43342e-06
4.24548e-08
1.42994e-06
-7.87549e-08
1.43356e-06
2.18167e-08
1.43003e-06
-5.52183e-08
1.43315e-06
7.80506e-09
1.43026e-06
-3.99871e-08
1.43305e-06
6.12622e-09
1.42985e-06
-2.71252e-08
1.432e-06
7.37865e-09
1.42903e-06
-1.09126e-08
1.43031e-06
3.71192e-09
1.42808e-06
-7.52883e-10
1.42778e-06
4.25734e-09
1.42621e-06
7.63719e-09
1.4216e-06
1.6128e-08
1.41854e-06
3.90664e-08
1.12318e-07
1.39245e-06
1.47445e-06
-3.39511e-07
1.4823e-06
2.65102e-07
1.48025e-06
-2.53716e-07
1.48686e-06
2.02566e-07
1.48468e-06
-2.17574e-07
1.49078e-06
1.2864e-07
1.48776e-06
-1.64408e-07
1.4926e-06
1.11081e-07
1.4896e-06
-1.15328e-07
1.49391e-06
9.28501e-08
1.49053e-06
-9.6099e-08
1.49419e-06
6.80118e-08
1.49091e-06
-8.93849e-08
1.49489e-06
3.84719e-08
1.49174e-06
-7.56083e-08
1.49492e-06
1.86392e-08
1.49182e-06
-5.21239e-08
1.4946e-06
5.03372e-09
1.49211e-06
-3.74992e-08
1.49464e-06
3.5918e-09
1.49177e-06
-2.42565e-08
1.49378e-06
5.37574e-09
1.49108e-06
-8.21545e-09
1.4923e-06
2.48749e-09
1.49006e-06
1.49241e-09
1.49017e-06
4.14903e-09
1.48732e-06
1.04807e-08
1.48493e-06
1.85228e-08
1.48359e-06
4.04094e-08
6.6008e-08
1.5299e-06
1.5436e-06
-3.3689e-07
1.55069e-06
2.5801e-07
1.54775e-06
-2.50781e-07
1.55369e-06
1.96623e-07
1.55108e-06
-2.14961e-07
1.55652e-06
1.23198e-07
1.55339e-06
-1.61274e-07
1.55763e-06
1.06839e-07
1.55479e-06
-1.1249e-07
1.55861e-06
8.9038e-08
1.55545e-06
-9.29422e-08
1.5588e-06
6.4661e-08
1.55573e-06
-8.63164e-08
1.55953e-06
3.46741e-08
1.55653e-06
-7.26056e-08
1.5596e-06
1.55633e-08
1.55661e-06
-4.9129e-08
1.55935e-06
2.288e-09
1.5569e-06
-3.50408e-08
1.55942e-06
1.06209e-09
1.5566e-06
-2.14273e-08
1.55856e-06
3.41445e-09
1.55601e-06
-5.66872e-09
1.55702e-06
1.4733e-09
1.55518e-06
3.33308e-09
1.55448e-06
4.85019e-09
1.55331e-06
1.16526e-08
1.54828e-06
2.35546e-08
1.54388e-06
4.4806e-08
9.70717e-08
1.51282e-06
1.61648e-06
-3.33238e-07
1.62257e-06
2.51917e-07
1.61905e-06
-2.47265e-07
1.62425e-06
1.91424e-07
1.62144e-06
-2.12149e-07
1.6262e-06
1.1844e-07
1.62292e-06
-1.57996e-07
1.62667e-06
1.03093e-07
1.62382e-06
-1.09639e-07
1.62742e-06
8.54353e-08
1.6243e-06
-8.9824e-08
1.62768e-06
6.12862e-08
1.62462e-06
-8.32581e-08
1.6285e-06
3.07933e-08
1.62542e-06
-6.95223e-08
1.62856e-06
1.24173e-08
1.62545e-06
-4.60214e-08
1.62825e-06
-5.07646e-10
1.62566e-06
-3.24528e-08
1.62816e-06
-1.43591e-09
1.6253e-06
-1.85715e-08
1.62711e-06
1.61162e-09
1.62471e-06
-3.27129e-09
1.62543e-06
7.51413e-10
1.62384e-06
4.92287e-09
1.6226e-06
6.0908e-09
1.62204e-06
1.22109e-08
1.61688e-06
2.87198e-08
1.61203e-06
4.96572e-08
1.33794e-07
1.5753e-06
1.69319e-06
-3.28856e-07
1.69853e-06
2.46582e-07
1.69455e-06
-2.43283e-07
1.6993e-06
1.86667e-07
1.69627e-06
-2.09119e-07
1.70061e-06
1.14099e-07
1.69701e-06
-1.5439e-07
1.70052e-06
9.95836e-08
1.69742e-06
-1.06537e-07
1.70108e-06
8.17737e-08
1.69781e-06
-8.65554e-08
1.70142e-06
5.76743e-08
1.69822e-06
-8.00588e-08
1.7023e-06
2.67165e-08
1.69901e-06
-6.62387e-08
1.70226e-06
9.169e-09
1.69896e-06
-4.27192e-08
1.70178e-06
-3.32349e-09
1.69901e-06
-2.96865e-08
1.70141e-06
-3.83361e-09
1.69849e-06
-1.56509e-08
1.70012e-06
-2.51767e-11
1.69764e-06
-7.87669e-10
1.69852e-06
-1.33512e-10
1.69594e-06
7.51101e-09
1.69659e-06
5.43947e-09
1.69147e-06
1.73295e-08
1.69591e-06
2.42842e-08
1.6969e-06
4.86654e-08
8.44143e-08
1.74628e-06
1.77378e-06
-3.23916e-07
1.77878e-06
2.41584e-07
1.77433e-06
-2.38831e-07
1.77902e-06
1.81973e-07
1.77566e-06
-2.05759e-07
1.77989e-06
1.09868e-07
1.77581e-06
-1.50307e-07
1.77932e-06
9.60714e-08
1.77583e-06
-1.03044e-07
1.77972e-06
7.78844e-08
1.7762e-06
-8.30316e-08
1.78014e-06
5.37323e-08
1.77672e-06
-7.66445e-08
1.78102e-06
2.24201e-08
1.7775e-06
-6.27164e-08
1.78083e-06
5.839e-09
1.77734e-06
-3.92322e-08
1.7801e-06
-6.08661e-09
1.77722e-06
-2.68045e-08
1.77939e-06
-6e-09
1.77654e-06
-1.28005e-08
1.77776e-06
-1.25074e-09
1.77555e-06
1.42399e-09
1.77596e-06
-5.37027e-10
1.77349e-06
9.974e-09
1.77407e-06
4.86363e-09
1.76801e-06
2.33865e-08
1.77437e-06
1.79249e-08
1.77596e-06
4.70737e-08
2.86324e-08
1.83174e-06
1.85832e-06
-3.18489e-07
1.86337e-06
2.36533e-07
1.8584e-06
-2.33863e-07
1.86333e-06
1.77049e-07
1.85953e-06
-2.01959e-07
1.86389e-06
1.05506e-07
1.85926e-06
-1.45684e-07
1.86296e-06
9.23746e-08
1.85903e-06
-9.91084e-08
1.86324e-06
7.36718e-08
1.85941e-06
-7.92062e-08
1.86371e-06
4.94318e-08
1.86005e-06
-7.2985e-08
1.86456e-06
1.79171e-08
1.8608e-06
-5.8964e-08
1.86418e-06
2.46171e-09
1.86057e-06
-3.56211e-08
1.86321e-06
-8.72663e-09
1.86032e-06
-2.39121e-08
1.86215e-06
-7.82995e-09
1.85951e-06
-1.01665e-08
1.86019e-06
-1.92255e-09
1.85849e-06
3.11802e-09
1.85791e-06
4.52699e-11
1.8568e-06
1.10841e-08
1.85485e-06
6.81743e-09
1.85311e-06
2.5123e-08
1.84809e-06
2.29459e-08
1.83835e-06
5.68147e-08
6.45146e-08
1.80247e-06
1.94694e-06
-3.12593e-07
1.95233e-06
2.31144e-07
1.9468e-06
-2.28327e-07
1.95212e-06
1.71721e-07
1.94779e-06
-1.97623e-07
1.95245e-06
1.00848e-07
1.94727e-06
-1.4051e-07
1.95129e-06
8.83586e-08
1.94691e-06
-9.47274e-08
1.9515e-06
6.90835e-08
1.94735e-06
-7.50588e-08
1.952e-06
4.478e-08
1.94809e-06
-6.90719e-08
1.95276e-06
1.32414e-08
1.94882e-06
-5.50206e-08
1.9522e-06
-9.17037e-10
1.94856e-06
-3.19829e-08
1.951e-06
-1.11666e-08
1.94824e-06
-2.11482e-08
1.94964e-06
-9.23214e-09
1.94736e-06
-7.89137e-09
1.94744e-06
-1.99999e-09
1.94626e-06
4.30182e-09
1.94489e-06
1.41438e-09
1.9446e-06
1.13707e-08
1.94112e-06
1.02967e-08
1.94205e-06
2.41963e-08
1.9309e-06
3.40976e-08
1.92641e-06
6.13034e-08
9.57505e-08
1.89517e-06
2.03982e-06
-3.06225e-07
2.04574e-06
2.25225e-07
2.03959e-06
-2.22174e-07
2.04542e-06
1.65893e-07
2.04046e-06
-1.9267e-07
2.04553e-06
9.57766e-08
2.03982e-06
-1.34797e-07
2.04425e-06
8.39253e-08
2.03944e-06
-8.99153e-08
2.04443e-06
6.4098e-08
2.03995e-06
-7.05833e-08
2.04492e-06
3.98145e-08
2.04077e-06
-6.49204e-08
2.04555e-06
8.45781e-09
2.04149e-06
-5.09627e-08
2.04479e-06
-4.21659e-09
2.04127e-06
-2.84572e-08
2.0434e-06
-1.32993e-08
2.04094e-06
-1.86853e-08
2.04181e-06
-1.0105e-08
2.04004e-06
-6.11904e-09
2.03953e-06
-1.49511e-09
2.03872e-06
5.11682e-09
2.03709e-06
3.04259e-09
2.0364e-06
1.20634e-08
2.03335e-06
1.33404e-08
2.03228e-06
2.52668e-08
2.02523e-06
4.11531e-08
2.01382e-06
7.27103e-08
1.28913e-07
1.98066e-06
2.13715e-06
-2.99374e-07
2.14374e-06
2.18637e-07
2.13692e-06
-2.15354e-07
2.1433e-06
1.59516e-07
2.13766e-06
-1.87031e-07
2.14322e-06
9.02115e-08
2.13699e-06
-1.28565e-07
2.14191e-06
7.90061e-08
2.13669e-06
-8.4694e-08
2.14207e-06
5.87188e-08
2.13727e-06
-6.57869e-08
2.14249e-06
3.45971e-08
2.13813e-06
-6.05652e-08
2.14293e-06
3.65539e-09
2.13886e-06
-4.68859e-08
2.14198e-06
-7.34415e-09
2.13871e-06
-2.51809e-08
2.14045e-06
-1.50359e-08
2.1384e-06
-1.66408e-08
2.13876e-06
-1.04624e-08
2.13741e-06
-4.77263e-09
2.13663e-06
-7.12207e-10
2.13573e-06
6.01156e-09
2.13458e-06
4.19651e-09
2.13253e-06
1.41133e-08
2.13081e-06
1.50578e-08
2.12525e-06
3.08268e-08
2.1312e-06
3.52013e-08
2.15498e-06
4.89373e-08
5.39408e-08
2.22995e-06
2.23914e-06
-2.92025e-07
2.2465e-06
2.11277e-07
2.23896e-06
-2.07818e-07
2.24592e-06
1.52558e-07
2.23953e-06
-1.80643e-07
2.24565e-06
8.40969e-08
2.23892e-06
-1.21837e-07
2.24436e-06
7.35619e-08
2.23877e-06
-7.90971e-08
2.24451e-06
5.29775e-08
2.23942e-06
-6.07034e-08
2.2448e-06
2.92216e-08
2.24031e-06
-5.60791e-08
2.245e-06
-1.03435e-09
2.24105e-06
-4.29324e-08
2.24386e-06
-1.01516e-08
2.24102e-06
-2.23458e-08
2.2422e-06
-1.62144e-08
2.24079e-06
-1.52274e-08
2.24043e-06
-1.01061e-08
2.23987e-06
-4.21559e-09
2.23827e-06
8.93768e-10
2.23825e-06
6.02694e-09
2.23588e-06
6.56629e-09
2.23532e-06
1.46738e-08
2.23203e-06
1.83457e-08
2.22977e-06
3.30877e-08
2.22269e-06
4.22817e-08
2.20672e-06
6.49086e-08
8.4671e-08
2.17599e-06
2.34601e-06
-2.84159e-07
2.35422e-06
2.03067e-07
2.34592e-06
-1.99521e-07
2.35349e-06
1.44995e-07
2.3463e-06
-1.73455e-07
2.353e-06
7.7399e-08
2.3458e-06
-1.14639e-07
2.35178e-06
6.75793e-08
2.34585e-06
-7.317e-08
2.3519e-06
4.69266e-08
2.34659e-06
-5.53917e-08
2.35201e-06
2.3802e-08
2.34749e-06
-5.15617e-08
2.35192e-06
-5.46054e-09
2.34825e-06
-3.92582e-08
2.35058e-06
-1.24888e-08
2.34836e-06
-2.01212e-08
2.34885e-06
-1.6705e-08
2.3482e-06
-1.45759e-08
2.34707e-06
-8.97756e-09
2.34738e-06
-4.52219e-09
2.34484e-06
3.42908e-09
2.34598e-06
4.89186e-09
2.34196e-06
1.05847e-08
2.34363e-06
1.30029e-08
2.33787e-06
2.41035e-08
2.33892e-06
3.20401e-08
2.32408e-06
5.712e-08
2.31462e-06
7.43657e-08
1.08821e-07
2.29047e-06
2.458e-06
-2.75764e-07
2.46711e-06
1.93954e-07
2.45802e-06
-1.90432e-07
2.4662e-06
1.36817e-07
2.45819e-06
-1.65442e-07
2.46547e-06
7.01164e-08
2.45784e-06
-1.07009e-07
2.46434e-06
6.10818e-08
2.45816e-06
-6.69845e-08
2.46443e-06
4.06512e-08
2.45899e-06
-4.99508e-08
2.46431e-06
1.84776e-08
2.45989e-06
-4.71405e-08
2.4639e-06
-9.47139e-09
2.46064e-06
-3.59961e-08
2.46242e-06
-1.42664e-08
2.46083e-06
-1.85351e-08
2.46075e-06
-1.66229e-08
2.46055e-06
-1.43698e-08
2.45933e-06
-7.76469e-09
2.45939e-06
-4.58119e-09
2.45772e-06
5.0989e-09
2.45741e-06
5.20786e-09
2.45535e-06
1.26407e-08
2.45388e-06
1.4477e-08
2.45089e-06
2.70906e-08
2.44854e-06
3.43923e-08
2.44038e-06
6.52786e-08
2.42219e-06
9.25515e-08
1.42899e-07
2.38811e-06
2.57537e-06
-2.66835e-07
2.58541e-06
1.83909e-07
2.57552e-06
-1.80538e-07
2.58431e-06
1.28019e-07
2.57548e-06
-1.56607e-07
2.58332e-06
6.22784e-08
2.57531e-06
-9.90023e-08
2.58226e-06
5.41282e-08
2.57591e-06
-6.06359e-08
2.5823e-06
3.42609e-08
2.57687e-06
-4.4512e-08
2.58194e-06
1.34028e-08
2.57776e-06
-4.29613e-08
2.58122e-06
-1.29252e-08
2.57847e-06
-3.32533e-08
2.57965e-06
-1.54412e-08
2.57864e-06
-1.75292e-08
2.57817e-06
-1.61492e-08
2.57812e-06
-1.43177e-08
2.57725e-06
-6.89675e-09
2.57651e-06
-3.84756e-09
2.57637e-06
5.24331e-09
2.57374e-06
7.83622e-09
2.57482e-06
1.15627e-08
2.56944e-06
1.98584e-08
2.56883e-06
2.76947e-08
2.56123e-06
4.19988e-08
2.57815e-06
4.83576e-08
2.61399e-06
5.67066e-08
5.59681e-08
2.70092e-06
2.69836e-06
-2.57371e-07
2.70936e-06
1.72917e-07
2.69865e-06
-1.69834e-07
2.70807e-06
1.18603e-07
2.69844e-06
-1.46976e-07
2.70678e-06
5.39406e-08
2.69846e-06
-9.06885e-08
2.70577e-06
4.68152e-08
2.69939e-06
-5.42498e-08
2.70574e-06
2.791e-08
2.7005e-06
-3.92713e-08
2.70511e-06
8.78798e-09
2.70139e-06
-3.92422e-08
2.70408e-06
-1.5612e-08
2.70205e-06
-3.1224e-08
2.70245e-06
-1.58379e-08
2.70221e-06
-1.72951e-08
2.70103e-06
-1.49681e-08
2.70174e-06
-1.50239e-08
2.70004e-06
-5.19238e-09
2.70054e-06
-4.3532e-09
2.69872e-06
7.06207e-09
2.69838e-06
8.1781e-09
2.69629e-06
1.3651e-08
2.69451e-06
2.16423e-08
2.6917e-06
3.05038e-08
2.68845e-06
4.52483e-08
2.67937e-06
5.74383e-08
2.65816e-06
7.79124e-08
9.07298e-08
2.6234e-06
2.82727e-06
-2.47368e-07
2.83921e-06
1.60975e-07
2.82769e-06
-1.5832e-07
2.83772e-06
1.08573e-07
2.82734e-06
-1.36593e-07
2.83611e-06
4.51681e-08
2.82756e-06
-8.21315e-08
2.83512e-06
3.92477e-08
2.82882e-06
-4.79426e-08
2.835e-06
2.17312e-08
2.83008e-06
-3.43565e-08
2.83415e-06
4.71454e-09
2.83096e-06
-3.60503e-08
2.8329e-06
-1.75522e-08
2.83147e-06
-2.97925e-08
2.83132e-06
-1.56852e-08
2.83153e-06
-1.75073e-08
2.82995e-06
-1.33895e-08
2.83123e-06
-1.63068e-08
2.82862e-06
-2.58135e-09
2.83069e-06
-6.41485e-09
2.82644e-06
1.13068e-08
2.82947e-06
5.14647e-09
2.82338e-06
1.97456e-08
2.8271e-06
1.79236e-08
2.8195e-06
3.81009e-08
2.82077e-06
4.39809e-08
2.80022e-06
7.79823e-08
2.79084e-06
8.72925e-08
1.15529e-07
2.76604e-06
2.96237e-06
-2.36839e-07
2.97523e-06
1.48116e-07
2.96293e-06
-1.46028e-07
2.97353e-06
9.7976e-08
2.9625e-06
-1.2556e-07
2.97158e-06
3.60859e-08
2.96291e-06
-7.34626e-08
2.97053e-06
3.16328e-08
2.96454e-06
-4.19525e-08
2.97023e-06
1.60347e-08
2.96604e-06
-3.01647e-08
2.96916e-06
1.59586e-09
2.96692e-06
-3.38144e-08
2.96775e-06
-1.83831e-08
2.96722e-06
-2.92564e-08
2.96638e-06
-1.485e-08
2.96695e-06
-1.80699e-08
2.96543e-06
-1.18738e-08
2.9662e-06
-1.70802e-08
2.96476e-06
-1.13494e-09
2.96506e-06
-6.71393e-09
2.96322e-06
1.31385e-08
2.96289e-06
5.48588e-09
2.96017e-06
2.24624e-08
2.95871e-06
1.93776e-08
2.95624e-06
4.05741e-08
2.95374e-06
4.64823e-08
2.94282e-06
8.89055e-08
2.91723e-06
1.12876e-07
1.53402e-07
2.87936e-06
3.10398e-06
-2.25812e-07
3.1177e-06
1.3439e-07
3.10469e-06
-1.33017e-07
3.11579e-06
8.68844e-08
3.10423e-06
-1.14001e-07
3.11349e-06
2.68186e-08
3.10482e-06
-6.47901e-08
3.11235e-06
2.41059e-08
3.10674e-06
-3.63411e-08
3.11195e-06
1.08198e-08
3.10833e-06
-2.65454e-08
3.11093e-06
-1.00165e-09
3.10888e-06
-3.17639e-08
3.10993e-06
-1.94292e-08
3.10837e-06
-2.76963e-08
3.10939e-06
-1.5871e-08
3.10709e-06
-1.5775e-08
3.10949e-06
-1.42756e-08
3.10503e-06
-1.26163e-08
3.11022e-06
-6.32483e-09
3.10252e-06
9.82179e-10
3.10989e-06
5.77169e-09
3.09984e-06
1.55327e-08
3.10799e-06
1.43138e-08
3.09597e-06
3.13999e-08
3.0995e-06
3.70473e-08
3.08919e-06
5.67879e-08
3.1221e-06
5.59963e-08
3.16819e-06
6.67888e-08
6.12222e-08
3.26037e-06
3.25242e-06
-2.14327e-07
3.26694e-06
1.19873e-07
3.25331e-06
-1.1939e-07
3.26478e-06
7.5418e-08
3.25286e-06
-1.02082e-07
3.26214e-06
1.7544e-08
3.25365e-06
-5.63055e-08
3.26083e-06
1.69275e-08
3.25589e-06
-3.14008e-08
3.26023e-06
6.48325e-09
3.25771e-06
-2.40245e-08
3.2591e-06
-2.39304e-09
3.25829e-06
-3.09584e-08
3.25782e-06
-1.89538e-08
3.2581e-06
-2.79846e-08
3.25661e-06
-1.438e-08
3.25787e-06
-1.70313e-08
3.25526e-06
-1.16699e-08
3.2577e-06
-1.50534e-08
3.25387e-06
-2.49473e-09
3.25712e-06
-2.26661e-09
3.25165e-06
1.12465e-08
3.25534e-06
1.18413e-08
3.24835e-06
2.12959e-08
3.25262e-06
2.71326e-08
3.24651e-06
4.31627e-08
3.24817e-06
5.51261e-08
3.22754e-06
7.6622e-08
3.20396e-06
9.03737e-08
1.03056e-07
3.16212e-06
3.40802e-06
-2.02417e-07
3.42324e-06
1.0465e-07
3.40913e-06
-1.05275e-07
3.42082e-06
6.37291e-08
3.40873e-06
-8.99929e-08
3.4178e-06
8.47392e-09
3.40973e-06
-4.82329e-08
3.41628e-06
1.03761e-08
3.41232e-06
-2.74394e-08
3.41541e-06
3.38604e-09
3.41433e-06
-2.29385e-08
3.41424e-06
-2.3043e-09
3.41487e-06
-3.159e-08
3.4129e-06
-1.69866e-08
3.41474e-06
-2.98187e-08
3.41153e-06
-1.11708e-08
3.41458e-06
-2.00788e-08
3.4101e-06
-7.19215e-09
3.41442e-06
-1.9373e-08
3.40862e-06
3.30262e-09
3.41377e-06
-7.41814e-09
3.40634e-06
1.86755e-08
3.41214e-06
6.04272e-09
3.40322e-06
3.02182e-08
3.4087e-06
2.16495e-08
3.40247e-06
4.93933e-08
3.40738e-06
5.02195e-08
3.38314e-06
1.00861e-07
3.3561e-06
1.17409e-07
1.47559e-07
3.3116e-06
3.57114e-06
-1.90149e-07
3.58694e-06
8.8855e-08
3.57252e-06
-9.08595e-08
3.58424e-06
5.20076e-08
3.57216e-06
-7.79074e-08
3.58089e-06
-2.53513e-10
3.57324e-06
-4.05874e-08
3.57938e-06
4.23748e-09
3.57567e-06
-2.37332e-08
3.57895e-06
1.09083e-10
3.577e-06
-2.09936e-08
3.57878e-06
-4.07983e-09
3.5763e-06
-2.91096e-08
3.57882e-06
-1.95108e-08
3.57455e-06
-2.55441e-08
3.57919e-06
-1.58143e-08
3.57222e-06
-1.31077e-08
3.58019e-06
-1.51626e-08
3.5693e-06
-8.48116e-09
3.58175e-06
-9.14987e-09
3.56609e-06
8.24046e-09
3.58171e-06
3.05587e-09
3.56369e-06
2.40653e-08
3.5801e-06
1.38132e-08
3.56016e-06
4.15825e-08
3.57056e-06
3.89948e-08
3.5565e-06
6.4281e-08
3.60521e-06
5.21508e-08
3.65736e-06
6.52574e-08
5.96258e-08
3.7453e-06
3.74216e-06
-1.77607e-07
3.75836e-06
7.2656e-08
3.74392e-06
-7.64187e-08
3.75539e-06
4.05343e-08
3.74359e-06
-6.60999e-08
3.75164e-06
-8.30695e-09
3.74478e-06
-3.37238e-08
3.75003e-06
-1.0188e-09
3.74736e-06
-2.10563e-08
3.74945e-06
-1.97939e-09
3.74904e-06
-2.05883e-08
3.74857e-06
-3.6134e-09
3.74961e-06
-3.01472e-08
3.74673e-06
-1.66278e-08
3.7502e-06
-2.90194e-08
3.7444e-06
-1.00093e-08
3.75071e-06
-1.94191e-08
3.74243e-06
-6.88253e-09
3.75088e-06
-1.69338e-08
3.74116e-06
5.75481e-10
3.74943e-06
-3.31625e-11
3.73927e-06
1.32193e-08
3.7469e-06
1.64354e-08
3.73722e-06
2.34938e-08
3.74552e-06
3.32758e-08
3.73878e-06
4.57375e-08
3.73857e-06
6.44953e-08
3.7155e-06
7.52164e-08
3.68511e-06
9.56471e-08
1.08905e-07
3.63583e-06
3.92144e-06
-1.64861e-07
3.93784e-06
5.62557e-08
3.92374e-06
-6.23199e-08
3.93461e-06
2.96725e-08
3.92343e-06
-5.49238e-08
3.93035e-06
-1.52321e-08
3.92466e-06
-2.80271e-08
3.9288e-06
-5.15839e-09
3.92706e-06
-1.932e-08
3.92847e-06
-3.38825e-09
3.92865e-06
-2.07707e-08
3.92751e-06
-2.47063e-09
3.92952e-06
-3.21619e-08
3.92518e-06
-1.22824e-08
3.93077e-06
-3.46155e-08
3.92199e-06
-1.22606e-09
3.93221e-06
-2.96397e-08
3.9189e-06
6.43454e-09
3.93374e-06
-3.17778e-08
3.91608e-06
1.8234e-08
3.93424e-06
-1.8192e-08
3.91285e-06
3.46039e-08
3.93366e-06
-4.37262e-09
3.9116e-06
4.5559e-08
3.93455e-06
1.0324e-08
3.91628e-06
6.40082e-08
3.93709e-06
4.36826e-08
3.89158e-06
1.20724e-07
3.8591e-06
1.28127e-07
1.56757e-07
3.81125e-06
4.1094e-06
-1.52012e-07
4.12578e-06
3.98801e-08
4.11236e-06
-4.89028e-08
4.12239e-06
1.96451e-08
4.1118e-06
-4.43391e-08
4.11801e-06
-2.14441e-08
4.11238e-06
-2.23937e-08
4.11751e-06
-1.02897e-08
4.11323e-06
-1.50374e-08
4.11919e-06
-9.34729e-09
4.11241e-06
-1.39962e-08
4.12084e-06
-1.08944e-08
4.11028e-06
-2.16077e-08
4.12201e-06
-2.40079e-08
4.10774e-06
-2.03493e-08
4.12255e-06
-1.60351e-08
4.10538e-06
-1.24661e-08
4.12318e-06
-1.13655e-08
4.1039e-06
-1.25029e-08
4.12305e-06
-9.08266e-10
4.10247e-06
2.38359e-09
4.1209e-06
1.61767e-08
4.10081e-06
1.5711e-08
4.11721e-06
2.9165e-08
4.09868e-06
2.8848e-08
4.11682e-06
4.5869e-08
4.10836e-06
5.21428e-08
4.15938e-06
6.97073e-08
4.21159e-06
7.59135e-08
8.66631e-08
4.28169e-06
4.3065e-06
-1.39211e-07
4.32252e-06
2.38603e-08
4.31049e-06
-3.68728e-08
4.31894e-06
1.12e-08
4.30972e-06
-3.51219e-08
4.31395e-06
-2.56706e-08
4.3102e-06
-1.86519e-08
4.31348e-06
-1.35627e-08
4.31094e-06
-1.25031e-08
4.31534e-06
-1.37433e-08
4.31011e-06
-8.76333e-09
4.31701e-06
-1.77943e-08
4.30798e-06
-1.25782e-08
4.31814e-06
-3.41697e-08
4.30541e-06
-7.62536e-09
4.31904e-06
-2.96626e-08
4.30267e-06
3.90351e-09
4.32003e-06
-2.87263e-08
4.30082e-06
6.71e-09
4.32027e-06
-2.03575e-08
4.29865e-06
2.40024e-08
4.3191e-06
-4.27153e-09
4.29689e-06
3.79148e-08
4.31542e-06
1.06356e-08
4.29379e-06
5.0486e-08
4.31318e-06
2.64738e-08
4.31152e-06
5.38075e-08
4.36252e-06
1.87008e-08
4.41094e-06
2.74979e-08
5.74686e-09
4.49185e-06
4.51321e-06
-1.26645e-07
4.52836e-06
8.70403e-09
4.51884e-06
-2.73494e-08
4.52478e-06
5.2639e-09
4.51735e-06
-2.76932e-08
4.51923e-06
-2.75535e-08
4.51765e-06
-1.70681e-08
4.5184e-06
-1.43107e-08
4.51922e-06
-1.33315e-08
4.51884e-06
-1.33579e-08
4.52063e-06
-1.05548e-08
4.51803e-06
-1.51922e-08
4.52128e-06
-1.58303e-08
4.51605e-06
-2.89391e-08
4.52176e-06
-1.33374e-08
4.51423e-06
-2.2132e-08
4.52189e-06
-3.75394e-09
4.51284e-06
-1.96828e-08
4.52118e-06
-1.6281e-09
4.51148e-06
-1.06585e-08
4.51879e-06
1.66968e-08
4.50834e-06
6.17916e-09
4.51373e-06
3.25261e-08
4.50495e-06
1.94119e-08
4.51282e-06
4.26176e-08
4.50579e-06
3.35027e-08
4.50945e-06
5.01476e-08
4.48103e-06
4.71184e-08
4.44344e-06
6.50933e-08
6.33312e-08
4.38585e-06
4.72975e-06
-1.14283e-07
4.74434e-06
-5.87871e-09
4.73582e-06
-1.88359e-08
4.74124e-06
-1.56678e-10
4.73389e-06
-2.03354e-08
4.73569e-06
-2.93548e-08
4.73384e-06
-1.52214e-08
4.73433e-06
-1.47986e-08
4.73627e-06
-1.52784e-08
4.73357e-06
-1.06496e-08
4.73894e-06
-1.59282e-08
4.73165e-06
-7.89909e-09
4.74047e-06
-2.46513e-08
4.72898e-06
-1.74473e-08
4.7416e-06
-2.59659e-08
4.72637e-06
-6.90202e-09
4.74222e-06
-1.96002e-08
4.72486e-06
-2.32207e-09
4.74214e-06
-1.89043e-08
4.72382e-06
7.65881e-09
4.74091e-06
-3.96263e-10
4.72275e-06
2.43384e-08
4.74021e-06
1.5066e-08
4.72347e-06
3.61587e-08
4.73729e-06
2.87954e-08
4.71539e-06
5.54025e-08
4.71262e-06
5.29167e-08
4.68769e-06
7.20447e-08
4.68138e-06
7.14082e-08
9.56865e-08
4.64902e-06
4.95709e-06
-1.02572e-07
4.96919e-06
-1.79807e-08
4.96593e-06
-1.55739e-08
4.96564e-06
1.26731e-10
4.96427e-06
-1.8958e-08
4.95955e-06
-2.46399e-08
4.9629e-06
-1.85737e-08
4.95912e-06
-1.10128e-08
4.96392e-06
-2.00817e-08
4.96012e-06
-6.8539e-09
4.96478e-06
-2.05788e-08
4.96004e-06
-3.16813e-09
4.96456e-06
-2.91673e-08
4.95887e-06
-1.17586e-08
4.96429e-06
-3.13885e-08
4.95802e-06
-6.28744e-10
4.96316e-06
-2.47425e-08
4.95708e-06
3.76204e-09
4.96071e-06
-2.25301e-08
4.95404e-06
1.43214e-08
4.95619e-06
-2.54086e-09
4.94959e-06
3.09365e-08
4.95132e-06
1.33329e-08
4.94772e-06
3.97648e-08
4.94832e-06
2.8187e-08
4.9502e-06
5.35293e-08
4.9482e-06
5.49112e-08
4.91982e-06
1.00424e-07
4.87628e-06
1.14947e-07
1.32235e-07
4.83974e-06
5.19498e-06
-9.12353e-08
5.20654e-06
-2.95384e-08
5.20202e-06
-1.10556e-08
5.20573e-06
-3.58772e-09
5.19777e-06
-1.09988e-08
5.20272e-06
-2.95825e-08
5.19421e-06
-1.00675e-08
5.20449e-06
-2.12909e-08
5.19282e-06
-8.40856e-09
5.20768e-06
-2.1715e-08
5.19105e-06
-3.95441e-09
5.20949e-06
-2.16091e-08
5.18903e-06
-8.70536e-09
5.21031e-06
-3.30424e-08
5.18714e-06
-8.21397e-09
5.2102e-06
-2.36887e-08
5.18584e-06
-3.86138e-10
5.21011e-06
-2.05059e-08
5.18609e-06
1.49504e-09
5.20903e-06
-8.61737e-09
5.18648e-06
2.00037e-08
5.20595e-06
1.14704e-08
5.18276e-06
3.65224e-08
5.19381e-06
2.87168e-08
5.17362e-06
4.83744e-08
5.18546e-06
4.16882e-08
5.19129e-06
4.90787e-08
5.26353e-06
2.81889e-08
5.3507e-06
2.77759e-08
2.81659e-08
5.45477e-06
5.44483e-06
-8.08804e-08
5.45191e-06
-3.66192e-08
5.45478e-06
-1.39171e-08
5.4497e-06
1.48815e-09
5.45387e-06
-1.5167e-08
5.44416e-06
-1.98769e-08
5.45134e-06
-1.72428e-08
5.44415e-06
-1.41057e-08
5.45096e-06
-1.52195e-08
5.44625e-06
-1.69979e-08
5.4509e-06
-8.61015e-09
5.44705e-06
-1.7759e-08
5.44966e-06
-1.13091e-08
5.44638e-06
-2.97637e-08
5.44807e-06
-9.90897e-09
5.44441e-06
-2.00218e-08
5.44563e-06
-1.611e-09
5.44199e-06
-1.68671e-08
5.44241e-06
1.0811e-09
5.4389e-06
-5.11072e-09
5.43955e-06
1.9352e-08
5.43548e-06
1.55439e-08
5.43622e-06
3.57778e-08
5.43432e-06
3.062e-08
5.43567e-06
4.70192e-08
5.43507e-06
4.2293e-08
5.42455e-06
5.95987e-08
5.3983e-06
5.44429e-08
5.35978e-06
6.62878e-08
6.61585e-08
5.32179e-06
5.70618e-06
-7.11032e-08
5.71231e-06
-4.27444e-08
5.71392e-06
-1.55354e-08
5.71372e-06
1.69401e-09
5.71223e-06
-1.36805e-08
5.70849e-06
-1.61396e-08
5.70941e-06
-1.81624e-08
5.70644e-06
-1.11283e-08
5.71045e-06
-1.92361e-08
5.70706e-06
-1.36035e-08
5.71234e-06
-1.38868e-08
5.70632e-06
-1.17427e-08
5.71267e-06
-1.7663e-08
5.70464e-06
-2.17301e-08
5.71228e-06
-1.75538e-08
5.70348e-06
-1.12159e-08
5.71148e-06
-9.6152e-09
5.70223e-06
-7.61819e-09
5.70882e-06
-5.50763e-09
5.6992e-06
4.50968e-09
5.70395e-06
1.46076e-08
5.69637e-06
2.31205e-08
5.70167e-06
3.04785e-08
5.69443e-06
3.78544e-08
5.69482e-06
4.66329e-08
5.6825e-06
5.46124e-08
5.67764e-06
6.44565e-08
5.66047e-06
7.16213e-08
5.64549e-06
8.12674e-08
8.88894e-08
5.62276e-06
5.9803e-06
-6.22059e-08
5.98337e-06
-4.58229e-08
5.98753e-06
-1.96876e-08
5.98602e-06
3.20361e-09
5.9877e-06
-1.53604e-08
5.97972e-06
-8.16706e-09
5.98566e-06
-2.40967e-08
5.97731e-06
-2.77705e-09
5.98667e-06
-2.85961e-08
5.97813e-06
-5.0703e-09
5.9874e-06
-2.31543e-08
5.97828e-06
-2.62047e-09
5.98675e-06
-2.61323e-08
5.97785e-06
-1.28278e-08
5.98446e-06
-2.41656e-08
5.97657e-06
-3.33284e-09
5.98008e-06
-1.31231e-08
5.97367e-06
-1.2011e-09
5.97581e-06
-7.64829e-09
5.97081e-06
9.50705e-09
5.97344e-06
1.19763e-08
5.9696e-06
2.6964e-08
5.97314e-06
2.6934e-08
5.96836e-06
4.26383e-08
5.96788e-06
4.71062e-08
5.95609e-06
6.6406e-08
5.95004e-06
7.05105e-08
5.93303e-06
8.86232e-08
5.92037e-06
9.39315e-08
1.0384e-07
5.90542e-06
6.2676e-06
-5.43153e-08
6.26621e-06
-4.44309e-08
6.27511e-06
-2.85921e-08
6.26972e-06
8.59227e-09
6.27625e-06
-2.18852e-08
6.26495e-06
3.12607e-09
6.27338e-06
-3.25217e-08
6.26305e-06
7.55218e-09
6.27374e-06
-3.92905e-08
6.26385e-06
4.82243e-09
6.27419e-06
-3.34925e-08
6.26422e-06
7.34397e-09
6.27362e-06
-3.55273e-08
6.26355e-06
-2.75972e-09
6.27171e-06
-3.2322e-08
6.26175e-06
6.62875e-09
6.26874e-06
-2.01161e-08
6.25879e-06
8.74812e-09
6.26369e-06
-1.25494e-08
6.25603e-06
1.71671e-08
6.25999e-06
8.01986e-09
6.25367e-06
3.32826e-08
6.25609e-06
2.45138e-08
6.25376e-06
4.49642e-08
6.26118e-06
3.96938e-08
6.25737e-06
7.02128e-08
6.24864e-06
7.92433e-08
6.21385e-06
1.23407e-07
6.1652e-06
1.42585e-07
1.30603e-07
6.13844e-06
6.56735e-06
-4.61958e-08
6.57492e-06
-5.20022e-08
6.56311e-06
-1.67848e-08
6.57999e-06
-8.28556e-09
6.5612e-06
-3.09509e-09
6.57974e-06
-1.54112e-08
6.55821e-06
-1.09919e-08
6.57943e-06
-1.36638e-08
6.55818e-06
-1.80428e-08
6.58031e-06
-1.73069e-08
6.55825e-06
-1.14372e-08
6.57963e-06
-1.40358e-08
6.55879e-06
-1.46879e-08
6.57832e-06
-2.22844e-08
6.55853e-06
-1.25377e-08
6.57708e-06
-1.19146e-08
6.55942e-06
-2.46248e-09
6.57468e-06
-6.50525e-09
6.5588e-06
3.3228e-09
6.5685e-06
7.47265e-09
6.55557e-06
2.09444e-08
6.56264e-06
2.62174e-08
6.54887e-06
3.82828e-08
6.55124e-06
4.25891e-08
6.54258e-06
4.83555e-08
6.57003e-06
4.27703e-08
6.60426e-06
4.5007e-08
6.68613e-06
4.15367e-08
6.78651e-06
4.22074e-08
5.95007e-08
6.85761e-06
6.88398e-06
-4.03834e-08
6.87786e-06
-4.5886e-08
6.88943e-06
-2.83519e-08
6.88166e-06
-5.21635e-10
6.89235e-06
-1.37825e-08
6.8799e-06
-2.95803e-09
6.888e-06
-1.90904e-08
6.87929e-06
-4.95276e-09
6.88625e-06
-2.5002e-08
6.87987e-06
-1.09295e-08
6.88677e-06
-1.83405e-08
6.87994e-06
-7.20431e-09
6.88581e-06
-2.05602e-08
6.8781e-06
-1.4568e-08
6.88333e-06
-1.7769e-08
6.87469e-06
-3.27782e-09
6.87897e-06
-6.73907e-09
6.87117e-06
1.2958e-09
6.87394e-06
5.51709e-10
6.86857e-06
1.28418e-08
6.87232e-06
1.71892e-08
6.87245e-06
2.60919e-08
6.88617e-06
2.45567e-08
6.8979e-06
3.08632e-08
6.9092e-06
3.70567e-08
6.89588e-06
5.60858e-08
6.86925e-06
7.16367e-08
6.81744e-06
9.33518e-08
6.75157e-06
1.08081e-07
8.29415e-08
6.72812e-06
7.21221e-06
-3.3453e-08
7.22123e-06
-5.49133e-08
7.20297e-06
-1.00876e-08
7.22567e-06
-2.32254e-08
7.20256e-06
9.32859e-09
7.2262e-06
-2.66006e-08
7.20039e-06
6.72186e-09
7.22519e-06
-2.97556e-08
7.20132e-06
-1.12457e-09
7.22417e-06
-3.37775e-08
7.20273e-06
3.09397e-09
7.222e-06
-2.6474e-08
7.20378e-06
-2.34198e-09
7.22033e-06
-3.11161e-08
7.20449e-06
-1.9276e-09
7.21802e-06
-1.68103e-08
7.20344e-06
7.84229e-09
7.21168e-06
-6.94488e-09
7.19925e-06
1.29792e-08
7.20569e-06
6.40155e-09
7.19738e-06
2.55012e-08
7.20242e-06
2.10579e-08
7.19022e-06
3.67474e-08
7.19108e-06
3.00064e-08
7.19121e-06
3.69233e-08
7.22251e-06
2.47886e-08
7.26955e-06
2.46002e-08
7.35323e-06
9.67219e-09
7.45702e-06
4.29093e-09