/*--------------------------------*- C++ -*----------------------------------*\
| =========                 |                                                 |
| \\      /  F ield         | OpenFOAM: The Open Source CFD Toolbox           |
|  \\    /   O peration     | Version:  v2006                                 |
|   \\  /    A nd           | Website:  www.openfoam.com                      |
|    \\/     M anipulation  |                                                 |
\*---------------------------------------------------------------------------*/
FoamFile
{
    version     2.0;
    format      ascii;
    class       volVectorField;
    location    "0.8";
    object      U;
}
// * * * * * * * * * * * * * * * * * * * * * * * * * * * * * * * * * * * * * //

dimensions      [0 1 -1 0 0 0 0];


internalField   nonuniform List<vector> 
26400
(
(0.909377 -0.00497752 0)
(1.09172 0.00461001 0)
(0.912906 -0.00414415 0)
(1.09163 0.00398292 0)
(0.918978 -0.00395651 0)
(1.09281 0.00296844 0)
(0.925059 -0.00346414 0)
(1.09278 0.0028141 0)
(0.929272 -0.00278248 0)
(1.09235 0.0027273 0)
(0.934369 -0.00268016 0)
(1.09289 0.00231336 0)
(0.938292 -0.00283254 0)
(1.09335 0.00174842 0)
(0.94184 -0.00275287 0)
(1.09504 0.00114404 0)
(0.944065 -0.00233376 0)
(1.09555 0.000713306 0)
(0.944739 -0.00198328 0)
(1.09679 0.000728434 0)
(0.944931 -0.00177044 0)
(1.09858 0.000793975 0)
(0.942758 -0.00124247 0)
(1.10035 0.00065005 0)
(0.939533 -0.000836527 0)
(1.10233 0.000554336 0)
(0.934903 -0.000377456 0)
(1.10441 0.00012966 0)
(0.926343 0.0012366 0)
(1.10528 0.000454642 0)
(0.916247 -0.00501979 0)
(1.08598 0.00461486 0)
(0.922386 -0.00420913 0)
(1.08575 0.00398463 0)
(0.930142 -0.00404319 0)
(1.08624 0.00296143 0)
(0.937483 -0.00353672 0)
(1.08521 0.00282588 0)
(0.943016 -0.00285352 0)
(1.08339 0.00272517 0)
(0.949617 -0.00275743 0)
(1.08212 0.00231673 0)
(0.955316 -0.00291582 0)
(1.08039 0.00174327 0)
(0.961052 -0.00284365 0)
(1.07928 0.00116203 0)
(0.966054 -0.00240802 0)
(1.07621 0.000748231 0)
(0.970387 -0.00206521 0)
(1.07276 0.000778381 0)
(0.975735 -0.00184258 0)
(1.06819 0.000884112 0)
(0.980815 -0.0013005 0)
(1.06134 0.000746247 0)
(0.987251 -0.000855079 0)
(1.05196 0.00063967 0)
(0.995445 -0.000271986 0)
(1.03905 0.000356934 0)
(1.00401 0.00216234 0)
(1.01974 0.00158277 0)
(0.928362 -0.00506835 0)
(1.07431 0.00459408 0)
(0.937577 -0.00427036 0)
(1.07367 0.00396073 0)
(0.947455 -0.00411764 0)
(1.07299 0.00293311 0)
(0.956528 -0.0035849 0)
(1.07052 0.00281151 0)
(0.963716 -0.00289205 0)
(1.06694 0.00268537 0)
(0.971695 -0.00278548 0)
(1.06355 0.00227324 0)
(0.978724 -0.00293166 0)
(1.05946 0.0016708 0)
(0.985875 -0.00284056 0)
(1.05591 0.00109162 0)
(0.992331 -0.00234993 0)
(1.05054 0.000649786 0)
(0.997857 -0.00196685 0)
(1.04522 0.000627763 0)
(1.00391 -0.00166014 0)
(1.03938 0.000685962 0)
(1.00876 -0.0010114 0)
(1.03278 0.000455494 0)
(1.01281 -0.000454581 0)
(1.02635 0.000289194 0)
(1.0157 0.000232706 0)
(1.02002 0.000283086 0)
(1.01537 0.00234004 0)
(1.01399 0.00387884 0)
(0.943586 -0.00510383 0)
(1.05851 0.00451917 0)
(0.95449 -0.00430237 0)
(1.05729 0.00388718 0)
(0.965465 -0.00414626 0)
(1.05552 0.00285473 0)
(0.975347 -0.00357895 0)
(1.05214 0.00273813 0)
(0.983034 -0.00286638 0)
(1.04778 0.0025877 0)
(0.990787 -0.00273398 0)
(1.04365 0.00216514 0)
(0.997111 -0.00285971 0)
(1.03906 0.00152739 0)
(1.00325 -0.00274221 0)
(1.03555 0.000948024 0)
(1.00829 -0.00220899 0)
(1.03105 0.000487693 0)
(1.01175 -0.00181023 0)
(1.02756 0.00044297 0)
(1.01512 -0.00145153 0)
(1.02426 0.000496049 0)
(1.01678 -0.000765055 0)
(1.02096 0.000273472 0)
(1.01711 -0.000194347 0)
(1.01833 0.000144978 0)
(1.01639 0.0004579 0)
(1.01549 0.000363059 0)
(1.01358 0.00264873 0)
(1.01235 0.0060442 0)
(0.959286 -0.0051181 0)
(1.0416 0.00440238 0)
(0.969755 -0.00430282 0)
(1.03997 0.00377507 0)
(0.980076 -0.00413578 0)
(1.03778 0.00273623 0)
(0.98915 -0.00353537 0)
(1.03455 0.00262607 0)
(0.995729 -0.00280366 0)
(1.03083 0.00246316 0)
(1.00174 -0.00264617 0)
(1.02755 0.00203761 0)
(1.00597 -0.0027578 0)
(1.02408 0.00137518 0)
(1.00994 -0.00262621 0)
(1.02209 0.000808812 0)
(1.01276 -0.00207566 0)
(1.01952 0.000353597 0)
(1.014 -0.00168696 0)
(1.01818 0.000314928 0)
(1.01533 -0.00130437 0)
(1.01689 0.000398084 0)
(1.01534 -0.000627588 0)
(1.01532 0.000233016 0)
(1.01439 -0.00010325 0)
(1.014 0.000315325 0)
(1.01298 0.000257014 0)
(1.01191 0.00130475 0)
(1.01027 0.00179725 0)
(1.00934 0.00855288 0)
(0.973108 -0.00510874 0)
(1.0265 0.00427082 0)
(0.981376 -0.00427768 0)
(1.02487 0.00365056 0)
(0.989641 -0.00410173 0)
(1.02304 0.00260715 0)
(0.99671 -0.00347606 0)
(1.02071 0.00250958 0)
(1.00128 -0.00273374 0)
(1.01833 0.00234566 0)
(1.00519 -0.00255678 0)
(1.01648 0.0019257 0)
(1.00742 -0.00265989 0)
(1.01443 0.00124452 0)
(1.00966 -0.00252113 0)
(1.01384 0.000694023 0)
(1.01104 -0.00195983 0)
(1.01256 0.000245661 0)
(1.01117 -0.00158316 0)
(1.01229 0.000213596 0)
(1.01178 -0.00118183 0)
(1.01178 0.000326766 0)
(1.01139 -0.000514492 0)
(1.01074 0.000201541 0)
(1.01029 -1.40092e-05 0)
(1.00973 0.000320755 0)
(1.00895 0.000503091 0)
(1.00783 0.00127116 0)
(1.00667 0.00278207 0)
(1.00577 0.00632977 0)
(0.983706 -0.00507796 0)
(1.01496 0.00414678 0)
(0.989 -0.00423494 0)
(1.01366 0.00353479 0)
(0.994752 -0.00405649 0)
(1.01258 0.00248925 0)
(0.999543 -0.00341276 0)
(1.01125 0.00240708 0)
(1.00215 -0.00266743 0)
(1.01005 0.00224507 0)
(1.00447 -0.00247303 0)
(1.00932 0.00182985 0)
(1.00549 -0.00256734 0)
(1.00824 0.00112494 0)
(1.00684 -0.0024186 0)
(1.00842 0.000583829 0)
(1.00758 -0.00184255 0)
(1.00767 0.000133235 0)
(1.00731 -0.00146938 0)
(1.00772 8.8548e-05 0)
(1.00773 -0.00101705 0)
(1.00741 0.000181157 0)
(1.00725 -0.000303561 0)
(1.00651 3.94428e-05 0)
(1.00617 0.000245057 0)
(1.00561 5.85247e-05 0)
(1.00492 0.00108122 0)
(1.00392 0.000773987 0)
(1.00282 0.0042879 0)
(1.00221 0.00483368 0)
(0.990905 -0.00503049 0)
(1.00722 0.00404064 0)
(0.993418 -0.00418068 0)
(1.00638 0.0034355 0)
(0.997025 -0.00400619 0)
(1.00602 0.0023886 0)
(0.999947 -0.00334705 0)
(1.00533 0.0023202 0)
(1.0011 -0.00260276 0)
(1.00479 0.00215614 0)
(1.0025 -0.00239255 0)
(1.0047 0.00174095 0)
(1.00296 -0.00247991 0)
(1.00412 0.00101128 0)
(1.00394 -0.0023233 0)
(1.00464 0.000483363 0)
(1.00437 -0.00173702 0)
(1.00404 3.10717e-05 0)
(1.00391 -0.00137617 0)
(1.00412 -1.13296e-05 0)
(1.00422 -0.00091258 0)
(1.0038 0.000118621 0)
(1.00364 -0.000231182 0)
(1.00291 7.23815e-05 0)
(1.00253 0.000177621 0)
(1.00204 0.000430749 0)
(1.00133 0.000562167 0)
(1.00052 0.00208404 0)
(0.999534 0.00277719 0)
(0.999126 0.010334 0)
(0.995324 -0.00497079 0)
(1.00256 0.00395148 0)
(0.995766 -0.00411779 0)
(1.0021 0.00334911 0)
(0.997932 -0.00395178 0)
(1.00224 0.00230058 0)
(0.999589 -0.00327541 0)
(1.0018 0.00224212 0)
(0.999811 -0.00253334 0)
(1.00152 0.00206849 0)
(1.00075 -0.00230881 0)
(1.00174 0.00164639 0)
(1.00099 -0.00238854 0)
(1.00141 0.000890359 0)
(1.00179 -0.00222051 0)
(1.00207 0.000376491 0)
(1.00202 -0.00162363 0)
(1.00146 -6.95998e-05 0)
(1.0014 -0.00127475 0)
(1.00145 -0.000105993 0)
(1.00158 -0.000797207 0)
(1.00105 6.22079e-05 0)
(1.00086 -0.000140191 0)
(1.00009 6.09723e-05 0)
(0.999717 0.000273611 0)
(0.999167 0.000488355 0)
(0.998599 0.000655009 0)
(0.997723 0.00228304 0)
(0.997338 0.00249165 0)
(0.996661 0.0101419 0)
(0.997834 -0.00490166 0)
(0.999967 0.00387222 0)
(0.996968 -0.00404693 0)
(0.999751 0.00326768 0)
(0.998321 -0.0038919 0)
(1.00018 0.00221767 0)
(0.999213 -0.00319442 0)
(0.999769 0.00216574 0)
(0.998878 -0.00245511 0)
(0.999543 0.00197525 0)
(0.999598 -0.00221803 0)
(0.999921 0.00153948 0)
(0.99974 -0.00228729 0)
(0.999721 0.000753858 0)
(1.00043 -0.00209874 0)
(1.00043 0.000247624 0)
(1.00049 -0.00148069 0)
(0.999762 -0.000198218 0)
(0.99972 -0.00112746 0)
(0.999644 -0.000241994 0)
(0.999783 -0.000605458 0)
(0.999131 -7.99073e-05 0)
(0.998929 7.84674e-05 0)
(0.998087 -9.76242e-05 0)
(0.997727 0.000657673 0)
(0.997127 0.000101779 0)
(0.996642 0.00167158 0)
(0.995762 0.000986569 0)
(0.995607 0.00412156 0)
(0.995114 0.00281965 0)
(0.999184 -0.00482451 0)
(0.998586 0.00379512 0)
(0.997583 -0.00396777 0)
(0.998526 0.00318434 0)
(0.998528 -0.00382496 0)
(0.999076 0.00213443 0)
(0.998982 -0.0031034 0)
(0.998633 0.00208819 0)
(0.998329 -0.00236932 0)
(0.998416 0.00187814 0)
(0.998944 -0.0021251 0)
(0.998882 0.00143049 0)
(0.999039 -0.00219056 0)
(0.998755 0.000627296 0)
(0.999643 -0.00199178 0)
(0.999477 0.000149088 0)
(0.999565 -0.00137245 0)
(0.99874 -0.000274386 0)
(0.998683 -0.00104755 0)
(0.998531 -0.000276462 0)
(0.99865 -0.000553749 0)
(0.997932 -4.10815e-05 0)
(0.997682 7.42943e-05 0)
(0.996827 3.60469e-05 0)
(0.996425 0.000580426 0)
(0.995868 0.000357248 0)
(0.99533 0.00167751 0)
(0.994597 0.00121768 0)
(0.994161 0.00425915 0)
(0.994453 0.00181621 0)
(0.999879 -0.00473986 0)
(0.997875 0.00371417 0)
(0.997901 -0.00387941 0)
(0.997917 0.00309423 0)
(0.998643 -0.00374842 0)
(0.998503 0.00204536 0)
(0.998852 -0.00299941 0)
(0.998031 0.00200178 0)
(0.998035 -0.00226894 0)
(0.997827 0.0017651 0)
(0.998609 -0.00201448 0)
(0.998343 0.00129811 0)
(0.99867 -0.00206878 0)
(0.998244 0.000471193 0)
(0.999211 -0.00184895 0)
(0.998953 1.46088e-05 0)
(0.999035 -0.00121229 0)
(0.998153 -0.000406657 0)
(0.99809 -0.000886893 0)
(0.997883 -0.000405005 0)
(0.998005 -0.000368174 0)
(0.997231 -0.000144899 0)
(0.996969 0.000259408 0)
(0.996082 -2.30784e-05 0)
(0.995697 0.000692273 0)
(0.995128 0.000478124 0)
(0.994638 0.00156439 0)
(0.993956 0.00188201 0)
(0.993561 0.00414488 0)
(0.994354 0.00627258 0)
(1.00021 -0.00464807 0)
(0.99753 0.00362594 0)
(0.998061 -0.00378147 0)
(0.997646 0.00299605 0)
(0.998686 -0.00366205 0)
(0.998209 0.00195019 0)
(0.998765 -0.00288605 0)
(0.99774 0.0019101 0)
(0.997885 -0.0021632 0)
(0.997566 0.00164959 0)
(0.998451 -0.00190608 0)
(0.998102 0.00117112 0)
(0.998474 -0.00195926 0)
(0.997995 0.000336284 0)
(0.99896 -0.00173309 0)
(0.998683 -8.37244e-05 0)
(0.998715 -0.00110408 0)
(0.997838 -0.000465643 0)
(0.997743 -0.000819208 0)
(0.997549 -0.000406816 0)
(0.997647 -0.000333547 0)
(0.996885 -6.35256e-05 0)
(0.996582 0.000189395 0)
(0.995718 0.000191017 0)
(0.995327 0.000533431 0)
(0.994784 0.000896015 0)
(0.994339 0.00127146 0)
(0.993741 0.002686 0)
(0.99361 0.00380686 0)
(0.994356 0.010445 0)
(1.00035 -0.00454894 0)
(0.997383 0.0035275 0)
(0.998139 -0.00367241 0)
(0.997558 0.0028879 0)
(0.998677 -0.00356263 0)
(0.998062 0.00184448 0)
(0.998692 -0.00275977 0)
(0.997626 0.00180564 0)
(0.997814 -0.00204358 0)
(0.997496 0.00151895 0)
(0.998388 -0.00178131 0)
(0.998022 0.00102588 0)
(0.998362 -0.00182857 0)
(0.997881 0.000181176 0)
(0.998796 -0.00158781 0)
(0.998541 -0.000209864 0)
(0.998507 -0.000963837 0)
(0.997666 -0.000559265 0)
(0.997543 -0.000708475 0)
(0.997386 -0.000454286 0)
(0.997473 -0.000240431 0)
(0.996732 -5.45661e-05 0)
(0.99642 0.000276306 0)
(0.995571 0.000200843 0)
(0.99521 0.000731915 0)
(0.994673 0.000863039 0)
(0.99431 0.00177974 0)
(0.993758 0.00260521 0)
(0.994141 0.00416463 0)
(0.99471 0.00660207 0)
(1.00039 -0.0044424 0)
(0.997343 0.0034175 0)
(0.998177 -0.00355212 0)
(0.997564 0.00276994 0)
(0.998636 -0.00344978 0)
(0.997985 0.00172881 0)
(0.998629 -0.00262367 0)
(0.997606 0.00169057 0)
(0.997794 -0.00191568 0)
(0.997527 0.0013804 0)
(0.99838 -0.00165104 0)
(0.998025 0.000879051 0)
(0.998291 -0.00169915 0)
(0.997831 3.71932e-05 0)
(0.99867 -0.00145827 0)
(0.998466 -0.000305026 0)
(0.998345 -0.00085424 0)
(0.997577 -0.000612076 0)
(0.997408 -0.000637695 0)
(0.997335 -0.000456325 0)
(0.997385 -0.00019027 0)
(0.996724 -2.18803e-05 0)
(0.996352 0.000382354 0)
(0.995599 0.000185101 0)
(0.995186 0.000986098 0)
(0.994776 0.000782294 0)
(0.994376 0.00235336 0)
(0.993948 0.00250048 0)
(0.994012 0.00480249 0)
(0.995226 0.00303331 0)
(1.00036 -0.0043281 0)
(0.997356 0.00329433 0)
(0.998198 -0.00341881 0)
(0.997616 0.00264002 0)
(0.99858 -0.00332114 0)
(0.997935 0.00160023 0)
(0.998576 -0.00247519 0)
(0.997626 0.00156072 0)
(0.997811 -0.00177749 0)
(0.997601 0.00123104 0)
(0.998414 -0.0015106 0)
(0.998051 0.000724223 0)
(0.998255 -0.0015611 0)
(0.99779 -0.000111381 0)
(0.998582 -0.00132368 0)
(0.998392 -0.000409561 0)
(0.998237 -0.000751811 0)
(0.99749 -0.00065523 0)
(0.997351 -0.000583193 0)
(0.997294 -0.000434272 0)
(0.997394 -0.000174996 0)
(0.996737 8.38608e-05 0)
(0.996398 0.000302028 0)
(0.995657 0.000446368 0)
(0.995297 0.000806527 0)
(0.994912 0.00125715 0)
(0.994594 0.00207948 0)
(0.994195 0.00330604 0)
(0.994259 0.00498772 0)
(0.99597 0.00730738 0)
(1.00031 -0.0042065 0)
(0.997403 0.003158 0)
(0.998203 -0.0032732 0)
(0.997698 0.00250167 0)
(0.99851 -0.00318022 0)
(0.997911 0.00146335 0)
(0.998519 -0.00232123 0)
(0.997679 0.00142558 0)
(0.997831 -0.0016389 0)
(0.997709 0.00108116 0)
(0.998452 -0.00137244 0)
(0.998109 0.000583539 0)
(0.998214 -0.00143947 0)
(0.997779 -0.00023117 0)
(0.998488 -0.00122998 0)
(0.998353 -0.000453405 0)
(0.998124 -0.000722732 0)
(0.997446 -0.000622631 0)
(0.997291 -0.000626425 0)
(0.997307 -0.00031823 0)
(0.99741 -0.000264156 0)
(0.996803 0.000305942 0)
(0.996468 0.000123636 0)
(0.995766 0.000818894 0)
(0.995439 0.000545131 0)
(0.995104 0.00185365 0)
(0.99486 0.00170286 0)
(0.994568 0.00415041 0)
(0.994854 0.00504199 0)
(0.996296 0.0118469 0)
(1.00025 -0.00407575 0)
(0.99747 0.00300455 0)
(0.998195 -0.00311175 0)
(0.997801 0.00234888 0)
(0.998433 -0.0030182 0)
(0.997915 0.00130935 0)
(0.998454 -0.00215352 0)
(0.997757 0.00127267 0)
(0.997843 -0.00148568 0)
(0.997842 0.000920513 0)
(0.998485 -0.00123045 0)
(0.99819 0.000438909 0)
(0.998172 -0.00130129 0)
(0.997791 -0.000355791 0)
(0.998401 -0.0011163 0)
(0.998333 -0.000524889 0)
(0.998023 -0.000645287 0)
(0.997415 -0.000636165 0)
(0.997251 -0.000576422 0)
(0.997335 -0.000320012 0)
(0.997447 -0.000182473 0)
(0.996887 0.000246573 0)
(0.996554 0.000349263 0)
(0.995897 0.000639865 0)
(0.995611 0.0010029 0)
(0.995313 0.0016285 0)
(0.995158 0.00248089 0)
(0.994989 0.00376024 0)
(0.995813 0.00513182 0)
(0.996831 0.00710493 0)
(1.00019 -0.00393682 0)
(0.99754 0.00283639 0)
(0.99819 -0.00293824 0)
(0.997904 0.00218468 0)
(0.998369 -0.0028431 0)
(0.997932 0.00114562 0)
(0.998398 -0.00197947 0)
(0.997842 0.00110712 0)
(0.997857 -0.00133254 0)
(0.997978 0.000757984 0)
(0.99852 -0.00107883 0)
(0.998283 0.000281739 0)
(0.998135 -0.00118852 0)
(0.997824 -0.000460884 0)
(0.998321 -0.0010423 0)
(0.998343 -0.000552047 0)
(0.997925 -0.000623976 0)
(0.997419 -0.000623034 0)
(0.9972 -0.000569674 0)
(0.9974 -0.000300609 0)
(0.99746 -0.000144072 0)
(0.997018 0.000192408 0)
(0.996605 0.000536373 0)
(0.996087 0.00049512 0)
(0.99574 0.00140158 0)
(0.995611 0.00146398 0)
(0.995399 0.00318259 0)
(0.995309 0.00356127 0)
(0.995646 0.00532607 0)
(0.99746 0.00288302 0)
(1.00015 -0.00379558 0)
(0.997593 0.00266225 0)
(0.998199 -0.00275932 0)
(0.997979 0.00202558 0)
(0.99834 -0.00267012 0)
(0.997933 0.000998426 0)
(0.998379 -0.00182432 0)
(0.997891 0.000973358 0)
(0.9979 -0.00121373 0)
(0.998066 0.000635937 0)
(0.998587 -0.000975742 0)
(0.998328 0.000222565 0)
(0.998149 -0.00111578 0)
(0.997818 -0.000489732 0)
(0.99831 -0.00101298 0)
(0.998311 -0.000525931 0)
(0.997898 -0.000642127 0)
(0.997372 -0.000534696 0)
(0.997223 -0.000640525 0)
(0.997407 -0.000148154 0)
(0.997538 -0.000218113 0)
(0.997087 0.000419336 0)
(0.996713 0.000367873 0)
(0.996213 0.00085709 0)
(0.995939 0.00116373 0)
(0.995837 0.00200485 0)
(0.995727 0.00287099 0)
(0.995625 0.00450258 0)
(0.995895 0.00595429 0)
(0.998333 0.00780797 0)
(1.00012 -0.00362731 0)
(0.997648 0.00244162 0)
(0.998203 -0.00253555 0)
(0.998044 0.00180823 0)
(0.998319 -0.00242994 0)
(0.997947 0.000766636 0)
(0.998363 -0.00158691 0)
(0.997936 0.000735876 0)
(0.997928 -0.000998143 0)
(0.998143 0.00040313 0)
(0.998638 -0.000783062 0)
(0.99838 8.97378e-06 0)
(0.998145 -0.000948357 0)
(0.997837 -0.000630743 0)
(0.99829 -0.000898819 0)
(0.998317 -0.000595226 0)
(0.997866 -0.000600414 0)
(0.99736 -0.00052146 0)
(0.997231 -0.000660329 0)
(0.997445 -9.6041e-05 0)
(0.997596 -0.000342967 0)
(0.99716 0.000732279 0)
(0.996806 0.000111445 0)
(0.996333 0.0014055 0)
(0.996117 0.000782604 0)
(0.996066 0.00274675 0)
(0.99607 0.00234093 0)
(0.996079 0.00554005 0)
(0.99653 0.00638001 0)
(0.998302 0.0130888 0)
(1.00008 -0.00349092 0)
(0.997719 0.00227044 0)
(0.998194 -0.00236525 0)
(0.998118 0.00167291 0)
(0.998289 -0.00228031 0)
(0.997995 0.000668502 0)
(0.99834 -0.00149789 0)
(0.998 0.000681347 0)
(0.997932 -0.000980733 0)
(0.998228 0.000415028 0)
(0.998659 -0.000836814 0)
(0.99844 9.50124e-05 0)
(0.998138 -0.00109488 0)
(0.997875 -0.000443674 0)
(0.998284 -0.00109477 0)
(0.99834 -0.000351019 0)
(0.997849 -0.000822339 0)
(0.99736 -0.000304923 0)
(0.997249 -0.000841381 0)
(0.997477 3.48429e-05 0)
(0.997682 -0.000400214 0)
(0.997229 0.000714106 0)
(0.996906 0.000338395 0)
(0.996442 0.00122273 0)
(0.996303 0.00126822 0)
(0.996267 0.00254417 0)
(0.996418 0.00318581 0)
(0.996598 0.00499972 0)
(0.997654 0.00595871 0)
(0.998629 0.007192 0)
(1.00005 -0.00328611 0)
(0.99779 0.00198869 0)
(0.998191 -0.00208063 0)
(0.998183 0.00139437 0)
(0.998271 -0.00197555 0)
(0.998055 0.000380514 0)
(0.998333 -0.00119823 0)
(0.998068 0.000375275 0)
(0.997937 -0.000695835 0)
(0.998306 0.000123285 0)
(0.998676 -0.000512875 0)
(0.998503 -0.000175335 0)
(0.998122 -0.00070746 0)
(0.997935 -0.000812359 0)
(0.998272 -0.000635754 0)
(0.998405 -0.000821887 0)
(0.997822 -0.000222304 0)
(0.99741 -0.000907837 0)
(0.99724 -6.64085e-05 0)
(0.997579 -0.000694961 0)
(0.997695 0.000575376 0)
(0.997378 -0.000322531 0)
(0.996928 0.0014814 0)
(0.996628 8.38991e-05 0)
(0.996427 0.00254856 0)
(0.996586 0.00141266 0)
(0.996652 0.00463721 0)
(0.996814 0.00378953 0)
(0.997091 0.00669331 0)
(0.999137 0.00266614 0)
(1.00006 -0.00314472 0)
(0.997837 0.00180112 0)
(0.998218 -0.00190238 0)
(0.998208 0.00126092 0)
(0.99829 -0.00182787 0)
(0.998086 0.000289951 0)
(0.998374 -0.00113413 0)
(0.998092 0.000342616 0)
(0.997986 -0.000739497 0)
(0.998331 0.000169889 0)
(0.998734 -0.000694883 0)
(0.998508 1.52381e-05 0)
(0.99816 -0.00105336 0)
(0.997937 -0.000401332 0)
(0.998333 -0.00115219 0)
(0.998416 -0.000217782 0)
(0.99787 -0.00096651 0)
(0.997405 -3.14466e-05 0)
(0.997314 -0.00111957 0)
(0.997606 0.000500054 0)
(0.99779 -0.000784889 0)
(0.997438 0.00138912 0)
(0.997044 -0.000246313 0)
(0.996724 0.00221224 0)
(0.996635 0.000565576 0)
(0.996791 0.00370289 0)
(0.997004 0.0021607 0)
(0.997176 0.00642739 0)
(0.997506 0.00621882 0)
(0.999353 0.0136581 0)
(1.00005 -0.00293548 0)
(0.997908 0.00151992 0)
(0.99823 -0.00162319 0)
(0.998253 0.00100635 0)
(0.998287 -0.00154724 0)
(0.998148 5.26595e-05 0)
(0.998396 -0.000905191 0)
(0.998147 0.000138215 0)
(0.998003 -0.000587422 0)
(0.998377 2.26638e-05 0)
(0.998761 -0.000583118 0)
(0.998537 -9.8002e-05 0)
(0.998173 -0.000910774 0)
(0.997975 -0.000556203 0)
(0.998368 -0.000918787 0)
(0.998458 -0.000460542 0)
(0.997914 -0.000662119 0)
(0.997411 -0.000427864 0)
(0.99739 -0.000648925 0)
(0.99765 -0.000133732 0)
(0.997925 -4.14169e-05 0)
(0.997494 0.000666683 0)
(0.997179 0.000724656 0)
(0.996815 0.00134582 0)
(0.996839 0.00173144 0)
(0.996958 0.00283099 0)
(0.99738 0.00360283 0)
(0.997807 0.00503637 0)
(0.998981 0.00597851 0)
(0.999564 0.00730094 0)
(1.00005 -0.00277667 0)
(0.99798 0.00129458 0)
(0.998255 -0.0014143 0)
(0.998295 0.000841981 0)
(0.998293 -0.00136096 0)
(0.998217 -6.35369e-05 0)
(0.99843 -0.000778272 0)
(0.998208 5.6438e-05 0)
(0.998027 -0.000493156 0)
(0.998436 -2.25322e-05 0)
(0.998778 -0.000456809 0)
(0.998588 -0.000175527 0)
(0.998161 -0.000677067 0)
(0.998046 -0.000752057 0)
(0.998381 -0.000619215 0)
(0.99855 -0.000733395 0)
(0.997901 -0.000144871 0)
(0.997507 -0.000885671 0)
(0.997383 0.000107085 0)
(0.997799 -0.000807863 0)
(0.997949 0.000964801 0)
(0.997672 -0.000507091 0)
(0.997204 0.00203264 0)
(0.997025 -0.000103759 0)
(0.996987 0.00323087 0)
(0.997302 0.00135629 0)
(0.997564 0.00550756 0)
(0.997833 0.00356207 0)
(0.99811 0.00668283 0)
(1.00005 0.00105582 0)
(1.00011 -0.00253367 0)
(0.997997 0.000973238 0)
(0.998342 -0.0011164 0)
(0.99827 0.000558999 0)
(0.998366 -0.00107967 0)
(0.998215 -0.000286279 0)
(0.998539 -0.000592659 0)
(0.998195 -0.000115166 0)
(0.998126 -0.000440967 0)
(0.998409 -9.85068e-05 0)
(0.998878 -0.000554937 0)
(0.998549 -6.94729e-05 0)
(0.99824 -0.00100728 0)
(0.998023 -0.000339605 0)
(0.998492 -0.00121275 0)
(0.998561 -4.3711e-05 0)
(0.998001 -0.00119775 0)
(0.997492 0.000285696 0)
(0.997501 -0.00142504 0)
(0.99784 0.00085903 0)
(0.998063 -0.00098041 0)
(0.997752 0.00170095 0)
(0.997331 -0.000234828 0)
(0.997139 0.00248889 0)
(0.997222 0.000624931 0)
(0.997566 0.00388682 0)
(0.997971 0.00264525 0)
(0.998209 0.00705811 0)
(0.998403 0.00749851 0)
(1.00015 0.0136386 0)
(1.00012 -0.00242773 0)
(0.998065 0.000832166 0)
(0.998385 -0.000986939 0)
(0.99829 0.000519638 0)
(0.998396 -0.00102509 0)
(0.99826 -0.000294923 0)
(0.998604 -0.000636687 0)
(0.998218 -7.69933e-05 0)
(0.998188 -0.0005418 0)
(0.998421 -2.08018e-05 0)
(0.998944 -0.000643298 0)
(0.998538 -5.38338e-06 0)
(0.998297 -0.00104436 0)
(0.998024 -0.000301375 0)
(0.998586 -0.00123139 0)
(0.99855 9.92705e-06 0)
(0.998112 -0.0012149 0)
(0.997465 0.000353327 0)
(0.997637 -0.00144854 0)
(0.997863 0.000983201 0)
(0.998262 -0.000988807 0)
(0.9978 0.00196158 0)
(0.997521 -0.000349074 0)
(0.9972 0.0028412 0)
(0.997457 0.000401849 0)
(0.997783 0.0041121 0)
(0.998516 0.00205818 0)
(0.999149 0.00675019 0)
(1.00008 0.00680811 0)
(0.999576 0.0135977 0)
(1.00008 -0.00214586 0)
(0.998204 0.000447681 0)
(0.998385 -0.000620993 0)
(0.998376 0.000187385 0)
(0.99837 -0.000573697 0)
(0.998368 -0.000586029 0)
(0.998623 -0.000252296 0)
(0.998321 -0.000429363 0)
(0.998195 -0.000105644 0)
(0.998515 -0.000511015 0)
(0.998943 -1.56003e-05 0)
(0.998621 -0.000699123 0)
(0.998269 -0.000116848 0)
(0.998118 -0.00131015 0)
(0.9986 -4.84248e-06 0)
(0.998676 -0.00128034 0)
(0.998122 0.000423133 0)
(0.997557 -0.00138453 0)
(0.997681 0.000546886 0)
(0.998012 -0.00113881 0)
(0.998325 0.00134203 0)
(0.997953 -0.000518338 0)
(0.997604 0.00217203 0)
(0.997371 0.000169307 0)
(0.997619 0.00310702 0)
(0.998034 0.0013474 0)
(0.998776 0.00424065 0)
(0.999568 0.00182377 0)
(1.00055 0.00366245 0)
(1.00005 0.00022254 0)
(1.00006 -0.00198952 0)
(0.998334 0.000247192 0)
(0.998415 -0.00058048 0)
(0.998457 0.000163511 0)
(0.998376 -0.000731918 0)
(0.998452 -0.000425735 0)
(0.998668 -0.000522239 0)
(0.998401 -0.000156689 0)
(0.998233 -0.000460948 0)
(0.998599 -0.00018892 0)
(0.998971 -0.000410202 0)
(0.998689 -0.000337698 0)
(0.998263 -0.000551599 0)
(0.998202 -0.000899586 0)
(0.998631 -0.000436786 0)
(0.998778 -0.000861824 0)
(0.998134 -8.52468e-05 0)
(0.997654 -0.00095984 0)
(0.997723 9.18262e-05 0)
(0.99818 -0.000715575 0)
(0.998428 0.000955798 0)
(0.998143 4.86038e-05 0)
(0.997718 0.00185223 0)
(0.997586 0.000836269 0)
(0.997797 0.0028051 0)
(0.998237 0.00198202 0)
(0.998688 0.0036183 0)
(0.999117 0.00171906 0)
(0.999608 0.00203868 0)
(1.00175 0.000227793 0)
(1.00007 -0.0018533 0)
(0.998417 7.03724e-05 0)
(0.998496 -0.000390755 0)
(0.998475 7.71542e-05 0)
(0.998431 -0.00036094 0)
(0.998494 -0.000646237 0)
(0.998768 -0.000229661 0)
(0.998442 -0.000459599 0)
(0.998318 -0.000181783 0)
(0.998636 -0.000467531 0)
(0.999048 -0.000147371 0)
(0.998711 -0.000517418 0)
(0.99831 -0.000371272 0)
(0.998239 -0.000928223 0)
(0.998716 -0.00043626 0)
(0.998838 -0.000699087 0)
(0.998211 -0.000207016 0)
(0.9977 -0.00062774 0)
(0.997833 -0.000250658 0)
(0.998298 -0.000234165 0)
(0.998585 0.000493981 0)
(0.998273 0.000591472 0)
(0.997885 0.00129093 0)
(0.997733 0.00137151 0)
(0.998013 0.00210782 0)
(0.998385 0.00248334 0)
(0.998794 0.00332958 0)
(0.999238 0.00397433 0)
(1.00025 0.005008 0)
(1.00397 0.00622487 0)
(1.00007 -0.0015171 0)
(0.998541 -0.000306065 0)
(0.998558 -0.000167243 0)
(0.998559 -0.000119462 0)
(0.998452 -0.000312986 0)
(0.998565 -0.000566064 0)
(0.998823 -0.000348441 0)
(0.998509 -0.000255268 0)
(0.998373 -0.000482222 0)
(0.998711 -0.000110505 0)
(0.999107 -0.000636845 0)
(0.998766 4.51131e-05 0)
(0.998347 -0.00106085 0)
(0.998296 -0.000131103 0)
(0.998803 -0.00131306 0)
(0.998914 0.000247505 0)
(0.998277 -0.00126007 0)
(0.997744 0.000519363 0)
(0.997929 -0.00133776 0)
(0.998434 0.00101331 0)
(0.998732 -0.00055024 0)
(0.998431 0.00188414 0)
(0.998028 0.000283214 0)
(0.997907 0.00256966 0)
(0.998218 0.00107162 0)
(0.998708 0.0036068 0)
(0.999266 0.00262306 0)
(0.999784 0.00647713 0)
(1.00048 0.00753002 0)
(1.00306 0.0125482 0)
(1.00005 -0.00163197 0)
(0.998669 -0.000190881 0)
(0.998621 -0.000431692 0)
(0.998601 0.000173797 0)
(0.998507 -0.00051121 0)
(0.998639 -0.000328182 0)
(0.998913 -0.00053167 0)
(0.998567 -0.000144957 0)
(0.998449 -0.00057682 0)
(0.998756 -0.000149669 0)
(0.99919 -0.00058384 0)
(0.99879 -0.000159597 0)
(0.998414 -0.000815476 0)
(0.998333 -0.000504677 0)
(0.998909 -0.000889373 0)
(0.998966 -0.000281026 0)
(0.998397 -0.000730713 0)
(0.997794 -0.000210608 0)
(0.998071 -0.000648348 0)
(0.998569 0.000249198 0)
(0.998919 0.000294015 0)
(0.998568 0.0011818 0)
(0.998197 0.00115641 0)
(0.99804 0.00199268 0)
(0.998449 0.00205598 0)
(0.998949 0.00303178 0)
(0.999861 0.0032036 0)
(1.00099 0.00397974 0)
(1.00251 0.0040868 0)
(1.00311 0.00519613 0)
(1.00002 -0.00100973 0)
(0.998839 -0.000855115 0)
(0.998675 0.00012969 0)
(0.998743 -0.000388934 0)
(0.998488 0.000201682 0)
(0.998754 -0.000947715 0)
(0.998932 0.000198658 0)
(0.998694 -0.000935596 0)
(0.998468 0.000280348 0)
(0.998898 -0.0010829 0)
(0.999203 0.000469827 0)
(0.998915 -0.00122193 0)
(0.998391 0.000439136 0)
(0.998462 -0.00172962 0)
(0.998938 0.000475673 0)
(0.99911 -0.00153724 0)
(0.998388 0.000763975 0)
(0.997922 -0.00153028 0)
(0.99813 0.000855108 0)
(0.998802 -0.00110618 0)
(0.999061 0.00168431 0)
(0.998798 -0.000172257 0)
(0.998358 0.00253248 0)
(0.998307 0.000838907 0)
(0.998647 0.00355241 0)
(0.999208 0.00191958 0)
(0.999689 0.00428439 0)
(1.00018 0.00146718 0)
(1.00099 0.00224383 0)
(1.00425 -0.000343761 0)
(1.00005 -0.00149811 0)
(0.998911 -0.000205408 0)
(0.998812 -0.000665434 0)
(0.998745 0.000499909 0)
(0.998589 -0.000877127 0)
(0.998777 0.000242987 0)
(0.99906 -0.00102262 0)
(0.998726 0.000405167 0)
(0.998579 -0.00109843 0)
(0.998933 0.000342915 0)
(0.999312 -0.0010239 0)
(0.998935 0.000350528 0)
(0.998463 -0.00119957 0)
(0.99849 -2.30971e-05 0)
(0.999066 -0.0012216 0)
(0.999174 0.000239902 0)
(0.998513 -0.000960593 0)
(0.997973 0.000333788 0)
(0.99828 -0.000835098 0)
(0.998927 0.000761972 0)
(0.999261 1.58051e-05 0)
(0.99896 0.00165032 0)
(0.998588 0.000944657 0)
(0.998512 0.00257015 0)
(0.998894 0.00205776 0)
(0.99936 0.00368966 0)
(0.999809 0.00316484 0)
(1.00045 0.00453807 0)
(1.00205 0.00453964 0)
(1.00639 0.0077287 0)
(1.00006 -0.000626911 0)
(0.999019 -0.00123809 0)
(0.998927 0.000182217 0)
(0.998823 -0.000487237 0)
(0.998643 0.000434563 0)
(0.99884 -0.000925479 0)
(0.999135 0.000340735 0)
(0.998786 -0.000916159 0)
(0.998647 0.000276243 0)
(0.999016 -0.00102473 0)
(0.999392 0.000374855 0)
(0.998994 -0.000990612 0)
(0.998514 0.000204183 0)
(0.998566 -0.00130196 0)
(0.999167 0.000134502 0)
(0.999263 -0.000998088 0)
(0.998579 0.000349281 0)
(0.998049 -0.000920217 0)
(0.9984 0.000431708 0)
(0.999112 -0.000443288 0)
(0.999459 0.00127956 0)
(0.999156 0.000545442 0)
(0.998794 0.00211339 0)
(0.998757 0.00146867 0)
(0.999181 0.00316149 0)
(0.999701 0.00299385 0)
(1.00017 0.00512038 0)
(1.00083 0.00539534 0)
(1.00246 0.00695198 0)
(1.00688 0.00535327 0)
(1.00005 -0.00113858 0)
(0.999139 -0.000277497 0)
(0.999049 -0.00084435 0)
(0.998916 0.000599868 0)
(0.998703 -0.000971525 0)
(0.998917 0.000589849 0)
(0.999218 -0.00132714 0)
(0.998864 0.000800216 0)
(0.998718 -0.00159233 0)
(0.999097 0.000778298 0)
(0.999472 -0.00158014 0)
(0.999063 0.000860614 0)
(0.998565 -0.00172917 0)
(0.998636 0.000535174 0)
(0.999275 -0.00173209 0)
(0.999371 0.000798591 0)
(0.998668 -0.00136758 0)
(0.998139 0.00087426 0)
(0.998526 -0.0010937 0)
(0.99929 0.00128063 0)
(0.999652 -0.000190337 0)
(0.999345 0.00214735 0)
(0.998991 0.000739565 0)
(0.999001 0.00298418 0)
(0.99954 0.00178084 0)
(1.00023 0.00435911 0)
(1.00085 0.00408997 0)
(1.00135 0.00832884 0)
(1.00211 0.00970703 0)
(1.00532 0.0137908 0)
(0.999985 -0.00065106 0)
(0.999247 -0.000993748 0)
(0.99908 -0.000177048 0)
(0.99899 -0.000228577 0)
(0.998734 3.70338e-05 0)
(0.998986 -0.000441054 0)
(0.999256 -0.000144079 0)
(0.99891 -0.000411617 0)
(0.998739 -0.00036287 0)
(0.99917 -0.000514968 0)
(0.999517 -0.00027144 0)
(0.999124 -0.000430373 0)
(0.998584 -0.000428975 0)
(0.998727 -0.000715583 0)
(0.999359 -0.000432356 0)
(0.999491 -0.00038758 0)
(0.998733 -0.000145542 0)
(0.998252 -0.000262363 0)
(0.998634 7.48249e-05 0)
(0.999479 0.000252775 0)
(0.99983 0.000905346 0)
(0.999549 0.00114866 0)
(0.999185 0.00183074 0)
(0.999217 0.00218914 0)
(0.999803 0.00297719 0)
(1.00069 0.00332954 0)
(1.00191 0.00395427 0)
(1.00332 0.00407467 0)
(1.00498 0.00436165 0)
(1.00463 0.00375223 0)
(0.999897 -0.000544302 0)
(0.999504 -0.000859887 0)
(0.999141 -0.000323022 0)
(0.999234 -0.000167215 0)
(0.998696 -9.67283e-05 0)
(0.999185 -0.00027675 0)
(0.99925 -0.00023047 0)
(0.999108 -0.000305128 0)
(0.998738 -0.000372914 0)
(0.999379 -0.000449715 0)
(0.999532 -0.000245763 0)
(0.999293 -0.000424441 0)
(0.998568 -0.000349928 0)
(0.998887 -0.000718371 0)
(0.99941 -0.000332823 0)
(0.999672 -0.000395786 0)
(0.998765 -4.2579e-06 0)
(0.998417 -0.000242491 0)
(0.998733 0.000220001 0)
(0.999736 0.000322505 0)
(0.999991 0.000973137 0)
(0.99984 0.00115398 0)
(0.999417 0.00169591 0)
(0.999605 0.00184382 0)
(1.00005 0.00243777 0)
(1.00079 0.00281247 0)
(1.00121 0.00384087 0)
(1.0016 0.00447609 0)
(1.00186 0.00555508 0)
(1.00482 0.00603555 0)
(0.99997 -0.000861875 0)
(0.999421 -0.000378357 0)
(0.999282 -0.000730693 0)
(0.999159 0.000192836 0)
(0.998848 -0.000549339 0)
(0.999115 0.000215132 0)
(0.999382 -0.000700377 0)
(0.999034 0.000157207 0)
(0.998848 -0.000937818 0)
(0.999339 -4.62976e-06 0)
(0.999653 -0.00080911 0)
(0.999251 8.52881e-05 0)
(0.998656 -0.000925849 0)
(0.998877 -0.000140044 0)
(0.999562 -0.000891711 0)
(0.99971 0.000159694 0)
(0.998899 -0.000513854 0)