/*--------------------------------*- C++ -*----------------------------------*\
| =========                 |                                                 |
| \\      /  F ield         | OpenFOAM: The Open Source CFD Toolbox           |
|  \\    /   O peration     | Version:  v2006                                 |
|   \\  /    A nd           | Website:  www.openfoam.com                      |
|    \\/     M anipulation  |                                                 |
\*---------------------------------------------------------------------------*/
FoamFile
{
    version     2.0;
    format      ascii;
    class       volScalarField;
    location    "2.4";
    object      p;
}
// * * * * * * * * * * * * * * * * * * * * * * * * * * * * * * * * * * * * * //

dimensions      [0 2 -2 0 0 0 0];


internalField   nonuniform List<scalar> 
26400
(
3.27246e-09
0.00220945
0.00207183
0.00228879
0.00171499
0.00199761
0.00162696
0.00194958
0.00165009
0.00196298
0.00171115
0.00201601
0.0018026
0.00210345
0.00192897
0.00223954
0.00211299
0.00245403
0.00239463
0.00279418
0.00283119
0.00332868
0.00350876
0.00416474
0.00456727
0.00549701
0.00630469
0.00787476
0.00961787
0.0122507
3.27043e-07
0.00220951
0.00207229
0.00228883
0.00171565
0.00199762
0.00162775
0.00194953
0.001651
0.00196286
0.0017122
0.00201578
0.00180384
0.00210304
0.00193046
0.00223883
0.00211482
0.0024528
0.00239697
0.00279196
0.00283429
0.00332418
0.00351329
0.00415405
0.00457565
0.00546374
0.0063241
0.00773116
0.00960668
0.0115633
1.30237e-06
0.00220979
0.00207319
0.00228898
0.00171691
0.00199757
0.00162924
0.00194933
0.00165275
0.0019625
0.00171426
0.00201519
0.00180624
0.00210211
0.00193329
0.0022374
0.00211819
0.00245059
0.00240097
0.00278849
0.00283896
0.0033185
0.00351861
0.00414419
0.00458214
0.0054453
0.00632007
0.00765264
0.00949049
0.010904
3.42651e-06
0.00221064
0.00207444
0.00228945
0.00171854
0.00199766
0.00163115
0.00194921
0.00165499
0.00196215
0.00171683
0.00201453
0.00180919
0.00210099
0.00193669
0.0022356
0.00212211
0.00244776
0.00240555
0.00278398
0.00284425
0.00331122
0.00352442
0.00413154
0.00458773
0.00541584
0.00632049
0.0075295
0.00926487
0.0103511
7.18961e-06
0.00221194
0.00207601
0.00229013
0.00172048
0.00199778
0.00163336
0.00194902
0.00165755
0.00196164
0.00171973
0.00201359
0.00181245
0.00209943
0.00194038
0.00223316
0.00212634
0.00244401
0.00241042
0.00277821
0.00284973
0.00330231
0.00353003
0.00411664
0.00459067
0.00538766
0.00628845
0.00743873
0.00891657
0.00990294
1.27644e-05
0.00221333
0.0020779
0.0022907
0.00172267
0.00199765
0.00163577
0.00194849
0.00166031
0.0019607
0.00172282
0.0020121
0.00181594
0.00209718
0.00194436
0.00222985
0.0021309
0.0024392
0.00241563
0.00277123
0.00285529
0.00329228
0.00353513
0.00410357
0.00458954
0.00537536
0.00622195
0.00736243
0.00853428
0.00935176
1.99901e-05
0.00221455
0.00208004
0.00229096
0.00172504
0.00199706
0.0016383
0.00194747
0.00166322
0.0019592
0.00172613
0.00200997
0.00181973
0.00209418
0.00194877
0.00222561
0.00213603
0.00243325
0.00242148
0.0027629
0.00286133
0.00328043
0.00354037
0.00408711
0.0045881
0.00533235
0.00619593
0.00719172
0.00837455
0.00893933
2.85311e-05
0.00221547
0.00208241
0.00229082
0.0017276
0.00199597
0.00164099
0.00194592
0.00166635
0.00195715
0.00172976
0.00200724
0.00182396
0.00209046
0.00195374
0.0022205
0.00214183
0.00242623
0.00242799
0.00275336
0.00286776
0.00326655
0.00354487
0.00406939
0.00458539
0.0052964
0.00614193
0.00702809
0.00805274
0.00849557
3.80478e-05
0.0022161
0.00208502
0.00229031
0.00173042
0.0019944
0.00164392
0.00194386
0.00166983
0.00195456
0.00173383
0.0020039
0.00182875
0.00208602
0.00195938
0.00221453
0.00214829
0.00241829
0.00243494
0.00274311
0.0028742
0.0032543
0.00354662
0.00405444
0.00456447
0.00529415
0.00602076
0.00692838
0.00741137
0.00800576
4.82959e-05
0.00221651
0.00208791
0.00228952
0.00173361
0.00199239
0.00164719
0.0019413
0.00167376
0.00195142
0.0017385
0.00199989
0.00183425
0.00208075
0.00196582
0.00220754
0.00215556
0.00240916
0.0024425
0.00273089
0.0028811
0.00323892
0.0035488
0.00403365
0.00455529
0.00525104
0.00594941
0.00679803
0.00709281
0.00746045
5.91473e-05
0.00221675
0.00209113
0.0022885
0.00173725
0.00198997
0.00165088
0.00193823
0.00167824
0.00194766
0.00174382
0.00199515
0.00184049
0.00207463
0.00197303
0.0021996
0.00216343
0.00239911
0.00245032
0.00271825
0.0028873
0.00322316
0.00354974
0.00400979
0.00454432
0.00518091
0.00591752
0.00663262
0.00717623
0.00683942
7.05694e-05
0.00221683
0.00209471
0.00228726
0.00174143
0.00198709
0.00165507
0.00193457
0.00168334
0.00194322
0.00174988
0.0019896
0.00184754
0.00206757
0.00198101
0.00219068
0.0021718
0.00238813
0.00245819
0.00270528
0.00289208
0.00320773
0.00354755
0.00398567
0.00452396
0.0051256
0.00584978
0.0064594
0.00701751
0.00609979
8.25933e-05
0.0022167
0.00209869
0.00228581
0.00174625
0.00198374
0.00165982
0.00193026
0.00168912
0.00193802
0.00175673
0.0019832
0.00185538
0.00205961
0.00198963
0.00218094
0.00218043
0.00237636
0.00246558
0.00269233
0.00289486
0.00319284
0.00354188
0.00396438
0.00449126
0.00508155
0.00574033
0.00627753
0.00655732
0.00568448
9.52936e-05
0.00221628
0.0021031
0.00228412
0.00175179
0.00197985
0.00166518
0.00192522
0.00169565
0.001932
0.00176438
0.00197594
0.00186395
0.00205086
0.00199867
0.00217071
0.00218894
0.00236512
0.0024716
0.00268025
0.00289456
0.00317889
0.0035272
0.00394985
0.00444759
0.0050322
0.00561909
0.0060884
0.00587223
0.00509808
0.000108779
0.00221541
0.00210797
0.00228213
0.00175815
0.00197535
0.00167123
0.00191936
0.00170297
0.0019251
0.00177286
0.00196778
0.00187322
0.00204133
0.00200804
0.00215991
0.00219725
0.00235393
0.00247622
0.00266854
0.00289252
0.00316381
0.00351499
0.00391309
0.00441173
0.00494612
0.00550466
0.0059186
0.00594936
0.00469526
0.000123186
0.00221395
0.00211335
0.0022798
0.00176544
0.00197019
0.00167801
0.00191261
0.0017111
0.00191728
0.00178214
0.00195876
0.00188302
0.00203121
0.00201736
0.00214902
0.0022046
0.00234346
0.00247868
0.00265798
0.00288761
0.00314846
0.0035022
0.00387403
0.00436972
0.00484762
0.00537531
0.00570615
0.00577919
0.0039605
0.000138673
0.00221167
0.00211925
0.00227709
0.00177376
0.00196431
0.00168555
0.00190494
0.00172
0.00190861
0.00179206
0.00194914
0.00189295
0.00202128
0.00202587
0.0021396
0.00220967
0.00233518
0.00247727
0.00265034
0.00287639
0.00313695
0.00346947
0.00385071
0.00429906
0.00476687
0.00519947
0.00544019
0.00525892
0.00371444
0.000155446
0.00220833
0.00212572
0.00227392
0.00178321
0.00195766
0.00169387
0.00189631
0.00172962
0.00189913
0.0018025
0.00193913
0.00190267
0.00201184
0.00203328
0.00213168
0.00221238
0.00232878
0.00247307
0.00264373
0.00286287
0.00312803
0.00343212
0.00381858
0.00421978
0.00467596
0.00501771
0.00513201
0.00439851
0.00320939
0.000173728
0.00220364
0.00213277
0.00227027
0.00179388
0.00195021
0.00170296
0.0018867
0.00173988
0.00188886
0.0018133
0.00192885
0.00191181
0.0020022
0.00203927
0.00212458
0.00221329
0.00232212
0.00246886
0.00263318
0.00285227
0.00310071
0.00341119
0.00375948
0.0041483
0.00453492
0.00485431
0.00497495
0.00464227
0.00286423
0.000193706
0.00219733
0.00214037
0.00226613
0.00180579
0.00194207
0.00171264
0.0018764
0.00175039
0.00187848
0.00182367
0.00192111
0.00192007
0.00199538
0.00204313
0.00211944
0.0022119
0.00231638
0.00246258
0.00262241
0.00284214
0.00307489
0.00338595
0.00369061
0.00406475
0.00437823
0.00466771
0.00473726
0.0045101
0.0020335
0.000215843
0.00218894
0.0021486
0.00226137
0.00181912
0.00193305
0.00172304
0.00186509
0.00176129
0.00186728
0.0018336
0.00190867
0.00192795
0.00198829
0.00204553
0.00211507
0.00220822
0.00231166
0.00245158
0.00261247
0.00281983
0.00305768
0.00333792
0.00363851
0.00395725
0.00423656
0.00441161
0.00437354
0.00393967
0.00212045
0.000240133
0.00217824
0.00215728
0.00225621
0.00183366
0.00192368
0.00173354
0.00185388
0.00177151
0.00185842
0.00184169
0.00190484
0.00193076
0.00198752
0.00204155
0.00211806
0.00219759
0.00231659
0.00243181
0.002616
0.00278026
0.00304428
0.0032625
0.00358444
0.00383258
0.00410029
0.00414163
0.00391985
0.00286886
0.00176615
0.000267281
0.00216464
0.00216648
0.00225046
0.00184963
0.00191377
0.00174427
0.00184207
0.00178129
0.00184898
0.00185008
0.00189781
0.00193488
0.00198194
0.002044
0.00210948
0.00220063
0.00229966
0.00243629
0.00258242
0.00277987
0.00298271
0.00323983
0.00347823
0.00372213
0.00386992
0.00393348
0.00381096
0.00346826
0.00149988
0.000297509
0.0021478
0.00217604
0.00224421
0.00186693
0.00190352
0.00175491
0.00182966
0.00178963
0.00183884
0.0018565
0.00189212
0.00193755
0.00197698
0.00204436
0.00210244
0.00219758
0.00228685
0.00242769
0.00256602
0.00275963
0.00294699
0.00318705
0.00338989
0.00359119
0.00367845
0.00366656
0.00346979
0.00310762
0.00123309
0.000330899
0.00212749
0.0021856
0.00223793
0.001885
0.00189452
0.00176456
0.0018215
0.00179423
0.00183818
0.00185537
0.00189715
0.00193059
0.00198587
0.0020311
0.00211437
0.00217543
0.00230088
0.00238235
0.00257176
0.00269312
0.00293583
0.00307369
0.0033236
0.00343166
0.00354365
0.00334288
0.00286908
0.00164299
0.000947172
0.000368144
0.00210318
0.0021951
0.00223138
0.00190392
0.00188566
0.00177406
0.00181152
0.00179898
0.00183218
0.00185823
0.00189156
0.00193519
0.0019756
0.00204234
0.0020949
0.00219242
0.00226933
0.00240465
0.00251392
0.00268989
0.00284872
0.00304402
0.00318455
0.00328945
0.00327843
0.00316929
0.00293559
0.00254966
0.000689694
0.000409945
0.00207439
0.00220438
0.00222454
0.00192347
0.00187578
0.00178243
0.00180327
0.00180149
0.00182981
0.00185843
0.00189022
0.00193331
0.00196811
0.00203876
0.00208327
0.00218717
0.00224519
0.00239788
0.00247995
0.00268346
0.0027813
0.0029925
0.00305271
0.00313759
0.00301742
0.0028495
0.00256432
0.00229796
0.000504503
0.000455254
0.00204228
0.0022123
0.00221976
0.0019424
0.00187285
0.00178529
0.00180168
0.00179487
0.00183859
0.00184613
0.00190803
0.00191411
0.00200008
0.00200353
0.00211873
0.00213643
0.00228318
0.00232726
0.00250206
0.00258098
0.00276597
0.0028614
0.0029853
0.00295901
0.00281968
0.00236297
0.00163322
0.00064464
0.00101402
0.000505367
0.00200512
0.00221956
0.00221404
0.00196459
0.00186784
0.00179222
0.00179404
0.0017974
0.00183304
0.00185012
0.00190045
0.00191724
0.00198524
0.00200389
0.00210266
0.00213288
0.00226134
0.00231252
0.00246974
0.00254685
0.00271038
0.00277958
0.00287685
0.00282401
0.00265713
0.00213128
0.00129825
0.000224468
0.000665062
0.000561697
0.00196059
0.00222428
0.00220614
0.00198352
0.00186592
0.00179716
0.00178719
0.00180054
0.00182564
0.00185848
0.00188895
0.0019308
0.00196743
0.0020244
0.00207359
0.00214924
0.00221955
0.00231627
0.00241051
0.00252008
0.00261781
0.00270199
0.00272328
0.00269753
0.00253546
0.00226937
0.00183838
0.00124347
-0.000895558
0.000621105
0.00192518
0.00222167
0.00221368
0.0019988
0.00186874
0.00179828
0.0017827
0.00179977
0.00182123
0.00186081
0.00188282
0.00193417
0.0019576
0.00202785
0.00205555
0.00214634
0.00219064
0.00229792
0.00236147
0.00246968
0.00253342
0.00260148
0.00260385
0.00256159
0.00244277
0.00224342
0.00174812
0.000649633
-0.00309886
0.000688441
0.00187133
0.00222097
0.00218632
0.00202698
0.00187407
0.00180471
0.00177955
0.00179935
0.00181946
0.00185653
0.00188395
0.00192489
0.00196116
0.00201241
0.00206368
0.00212405
0.00218915
0.00225912
0.00233192
0.00240354
0.00245883
0.00250701
0.00249485
0.00241191
0.00220053
0.0018233
0.00127096
0.000471502
-0.00213726
0.000753958
0.00184002
0.00220119
0.00221458
0.00202227
0.00189253
0.00179355
0.00179433
0.00177891
0.00183742
0.00183131
0.0019074
0.00189616
0.00198561
0.00197431
0.00207428
0.0020801
0.00217687
0.00220126
0.00228638
0.00231911
0.00237965
0.00240338
0.00239806
0.00225527
0.00201825
0.00130601
0.000107362
-0.00154669
-0.00228657
0.00083306
0.00178979
0.00218784
0.00217429
0.00206279
0.00189186
0.00181597
0.0017788
0.0017962
0.00181659
0.00185123
0.00188354
0.00192001
0.00195978
0.00200113
0.00204356
0.00208721
0.0021295
0.00217534
0.00221437
0.0022535
0.00227495
0.00227934
0.00222863
0.00210692
0.00187911
0.00153539
0.00104985
0.000106576
-0.0031379
0.000904172
0.00176286
0.00215555
0.00219307
0.00206181
0.00190968
0.00181855
0.00178144
0.00179006
0.00181181
0.00184492
0.00187691
0.00191213
0.00194763
0.00198584
0.00202619
0.00206647
0.0021077
0.00213941
0.00215813
0.00217613
0.0021613
0.00213568
0.00206055
0.00196227
0.0017918
0.00151735
0.000798739
-0.000892585
-0.00527251
0.000983545
0.00173181
0.00211867
0.00217647
0.00207805
0.0019224
0.00183055
0.00178488
0.00179442
0.00180873
0.00184282
0.00187096
0.00190641
0.00194354
0.00198029
0.00201543
0.00204884
0.00206924
0.00209074
0.0020923
0.00208785
0.00204953
0.00199175
0.00188428
0.00174643
0.00154063
0.00122916
0.000487471
-0.00124549
-0.00567663
0.00107156
0.00171226
0.00207789
0.00214678
0.00209014
0.00193118
0.00184344
0.00178922
0.00179582
0.00180347
0.00183584
0.00186173
0.00189642
0.0019306
0.00196486
0.00199972
0.00202439
0.0020372
0.00204673
0.0020257
0.00199815
0.0019352
0.00185399
0.00169934
0.00145919
0.00108832
0.000630343
6.40916e-05
-0.000850832
-0.00410467
0.00111223
0.00173158
0.00203287
0.00216692
0.00205566
0.00198101
0.00183726
0.00182663
0.00177578
0.00181753
0.00181073
0.00186242
0.00187324
0.00191837
0.00193996
0.00197309
0.0019919
0.00200029
0.00199865
0.00196684
0.00189647
0.00181739
0.00168866
0.00154524
0.0012437
0.000705267
-0.000381297
-0.00188015
-0.00377144
-0.00349985
0.00123782
0.00168489
0.00199983
0.0021034
0.00208495
0.0019657
0.00187764
0.00182067
0.00179688
0.0017986
0.00181751
0.0018438
0.0018729
0.00189887
0.00192834
0.00194282
0.00196048
0.00195242
0.00193894
0.00188662
0.00180997
0.00167613
0.00149239
0.00127233
0.00104362
0.000763412
0.000428638
2.64498e-05
-0.000499585
-0.00339677
0.00125659
0.00173118
0.00195973
0.00212141
0.00204995
0.00200874
0.00186571
0.00184497
0.0017823
0.00180256
0.00180007
0.00183246
0.00185147
0.00187728
0.00190354
0.00191805
0.00192637
0.00191613
0.00187153
0.00182455
0.00173017
0.00162181
0.00145775
0.00125957
0.000862356
0.000120658
-0.00114063
-0.00277659
-0.00470026
-0.00409727
0.00137971
0.00168579
0.00193818
0.00205873
0.00207013
0.00199265
0.00191525
0.00185004
0.00180656
0.00178786
0.00179815
0.00181332
0.00183551
0.00185332
0.00187081
0.00187556
0.00187494
0.00185366
0.00181814
0.00175624
0.00166531
0.0015352
0.00135273
0.00109673
0.000780696
0.000440308
0.000105805
-0.000342126
-0.00157479
-0.00561901
0.00144862
0.0016883
0.00191985
0.00203538
0.00206297
0.00199472
0.00192658
0.00184846
0.00181057
0.00178521
0.00178425
0.00179509
0.00181256
0.00183576
0.00184621
0.00183958
0.00183686
0.00180436
0.00177073
0.00169166
0.00159435
0.00144067
0.00125928
0.00102671
0.000760743
0.000381833
-0.000218612
-0.00136463
-0.00360491
-0.00863261
0.00147521
0.00173158
0.00190511
0.00200745
0.00203737
0.00200076
0.00193629
0.00187026
0.00183035
0.00180306
0.00178006
0.00177005
0.00177959
0.00178596
0.00179783
0.00179875
0.00179229
0.00176252
0.00171574
0.00163164
0.00151696
0.0013512
0.00114551
0.000886485
0.000571737
0.000133094
-0.000558689
-0.00178501
-0.00412314
-0.0091486
0.00161615
0.00169162
0.00188956
0.00197816
0.0020217
0.00198072
0.00193421
0.00187246
0.00182688
0.00179407
0.00177087
0.00176758
0.00176202
0.00175935
0.00177096
0.00175882
0.00175342
0.00171066
0.00166024
0.00156581
0.00144836
0.00126476
0.00101723
0.000654931
0.000201017
-0.00033328
-0.00090866
-0.00168951
-0.0032335
-0.00786684
0.00155588
0.00183161
0.00186528
0.00199207
0.00196437
0.00200785
0.00190408
0.00190071
0.00181214
0.00180895
0.00174859
0.00173923
0.00171941
0.00172085
0.00172911
0.001726
0.00171827
0.00167871
0.00159638
0.00151427
0.00136791
0.00120407
0.000920863
0.000532222
-0.000195087
-0.00130728
-0.00284429
-0.0047026
-0.00677598
-0.00585014
0.00172486
0.00177407
0.00187265
0.00193129
0.00195849
0.00196233
0.00193674
0.00188756
0.00184883
0.00180896
0.00175283
0.00170383
0.00167974
0.00166873
0.00167362
0.00166707
0.00165428
0.00161067
0.00154477
0.00144547
0.00130846
0.00111422
0.000846073
0.000490028
6.62381e-05
-0.00041104
-0.000995111
-0.00194458
-0.00401349
-0.00925088
0.00173616
0.00179353
0.00189278
0.00193715
0.0019576
0.00194262
0.00191802
0.00187347
0.00182532
0.00178109
0.00173458
0.00170671
0.00166944
0.00163805
0.001631
0.00160858
0.0015996
0.00155121
0.00149268
0.00138361
0.00125169
0.00105925
0.000828526
0.000511532
9.52124e-05
-0.00057689
-0.00164195
-0.00344603
-0.0065136
-0.0123769
0.00176468
0.00187259
0.00190842
0.001924
0.0019288
0.00191501
0.00190026
0.00186733
0.00183295
0.00177479
0.00171098
0.00166002
0.0016147
0.00159663
0.00157894
0.00157001
0.00154257
0.00150184
0.00142836
0.00132872
0.00118848
0.00101019
0.000771019
0.000449875
-2.08882e-05
-0.0007172
-0.00179538
-0.0035434
-0.00665797
-0.0126788
0.00185544
0.00188676
0.00190776
0.00190518
0.0018946
0.00188707
0.00187412
0.00184853
0.00181962
0.00177623
0.00170504
0.00162899
0.0015805
0.00155349
0.00154092
0.00152224
0.00149178
0.0014408
0.00136608
0.00126183
0.00112242
0.000938526
0.000692727
0.000352452
-0.000134687
-0.000856514
-0.00198173
-0.00385841
-0.00721045
-0.0135508
0.00187171
0.00192237
0.00193996
0.00192606
0.00189722
0.00186912
0.00183987
0.00180937
0.0017696
0.00172358
0.00166796
0.00161443
0.00156744
0.00153271
0.00150428
0.00147567
0.00143588
0.00137881
0.0012987
0.00119068
0.00104686
0.000856033
0.000598353
0.000242155
-0.000267527
-0.00103047
-0.00223902
-0.00425134
-0.00776704
-0.0142565
0.00192969
0.00196742
0.00196035
0.00192537
0.00187953
0.00183554
0.00179736
0.00176414
0.00172954
0.00169159
0.00164651
0.00159784
0.00154906
0.0015053
0.00146514
0.00142547
0.0013767
0.00131265
0.0012264
0.00111263
0.000961805
0.0007617
0.000490945
0.000115663
-0.000425878
-0.00124199
-0.002527
-0.00463237
-0.00824223
-0.0147805
0.00197151
0.00199954
0.00197878
0.00192795
0.00186646
0.00181044
0.00176509
0.00172997
0.0016961
0.00165876
0.00161572
0.00156883
0.00151961
0.00147116
0.00142328
0.00137371
0.00131586
0.00124358
0.00114988
0.00102834
0.000868781
0.000657239
0.00037075
-2.80357e-05
-0.000603923
-0.00146656
-0.00280753
-0.0049735
-0.00862796
-0.0151837
0.0020132
0.00202924
0.00200157
0.00193617
0.00185738
0.00178731
0.00173251
0.00169128
0.00165517
0.00161935
0.00157916
0.00153468
0.00148565
0.00143384
0.00137924
0.00132079
0.00125348
0.00117199
0.00106948
0.000938707
0.000768591
0.000543732
0.000239468
-0.000183134
-0.000789355
-0.00168792
-0.00306808
-0.00526848
-0.00895051
-0.0155271
0.0020568
0.00206505
0.00201735
0.00193697
0.00184653
0.00176461
0.00169999
0.00165203
0.00161398
0.00157876
0.00154056
0.00149736
0.00144805
0.001393
0.00133239
0.00126551
0.00118879
0.00109735
0.000984922
0.000843417
0.000661264
0.000421831
9.98364e-05
-0.000344328
-0.000975221
-0.00190043
-0.00330515
-0.00552426
-0.00921742
-0.0158006
0.0020968
0.00209247
0.00203404
0.00194045
0.00183688
0.0017434
0.00166928
0.0016149
0.00157354
0.00153725
0.00149948
0.00145667
0.00140644
0.00134824
0.00128194
0.00120703
0.00112093
0.00101927
0.000895962
0.000742698
0.00054763
0.00029373
-4.46367e-05
-0.000507024
-0.00115735
-0.00210175
-0.00352193
-0.00575295
-0.00945588
-0.0160504
0.00213436
0.00212111
0.00205022
0.00194382
0.00182769
0.00172251
0.00163868
0.00157703
0.0015316
0.00149366
0.00145563
0.00141232
0.00136069
0.00129922
0.00122756
0.00114508
0.00104977
0.000937638
0.000802929
0.000637462
0.000429542
0.000161966
-0.000190847
-0.000668418
-0.00133416
-0.00229205
-0.00372342
-0.00596333
-0.00967285
-0.0162754
0.00216949
0.00214912
0.00206602
0.00194723
0.00181901
0.00170158
0.00160735
0.00153804
0.00148826
0.00144813
0.00140921
0.00136478
0.00131126
0.00124629
0.00116934
0.0010795
0.00097519
0.000852652
0.000706675
0.000529237
0.000309038
2.88691e-05
-0.000336619
-0.000826881
-0.00150414
-0.00247215
-0.00391247
-0.00616038
-0.00987574
-0.0164795
0.00219816
0.00217225
0.00208394
0.00195485
0.00181224
0.00168093
0.00157536
0.0014985
0.00144379
0.00140114
0.00136038
0.00131439
0.00125832
0.00118972
0.00110729
0.00101037
0.000897213
0.000764757
0.000607878
0.000419194
0.000187445
-0.00010404
-0.000480593
-0.000981092
-0.00166718
-0.00264267
-0.00408982
-0.00634433
-0.0100679
-0.0166825
0.00222543
0.00219331
0.00209952
0.00196093
0.00180517
0.0016607
0.00154428
0.00145938
0.00139904
0.00135279
0.00130942
0.00126113
0.00120212
0.00112957
0.00104167
0.00093779
0.00081621
0.000674326
0.000507267
0.000308105
6.58324e-05
-0.000235822
-0.000621955
-0.00113051
-0.00182338
-0.00280439
-0.00425596
-0.00651414
-0.0102425
-0.0168656
0.00225451
0.00221768
0.00211031
0.00195949
0.00179443
0.00164064
0.00151476
0.00142113
0.00135428
0.00130319
0.00125657
0.00120522
0.00114299
0.00106613
0.000972882
0.000862155
0.000732694
0.000581903
0.00040552
0.000196703
-5.50077e-05
-0.000365732
-0.000759625
-0.0012747
-0.00197275
-0.00295782
-0.00441176
-0.00666983
-0.010393
-0.0170063
0.0022786
0.00223591
0.00212129
0.00196089
0.00178516
0.00162084
0.00148504
0.0013827
0.00130879
0.00125246
0.00120188
0.00114703
0.00108109
0.000999823
0.000901186
0.000783975
0.000647055
0.00048809
0.000303146
8.56738e-05
-0.00017449
-0.000492763
-0.000892989
-0.00141322
-0.00211523
-0.0031029
-0.00455786
-0.00681551
-0.0105387
-0.0171571
0.0022983
0.00225124
0.00213221
0.0019639
0.0017769
0.00160076
0.00145441
0.00134341
0.00126248
0.00120069
0.0011456
0.00108682
0.00101679
0.00093101
0.000827025
0.000703684
0.0005598
0.000393396
0.000200713
-2.44319e-05
-0.000291755
-0.000616193
-0.00102157
-0.00154582
-0.00225082
-0.00324036
-0.00469631
-0.00695444
-0.0106785
-0.017298
0.00231787
0.00226771
0.00214016
0.00196234
0.00176586
0.00157978
0.00142362
0.00130385
0.00121575
0.00114811
0.00108821
0.00102504
0.0009507
0.000860225
0.000751048
0.000621849
0.000471581
0.000298398
9.88836e-05
-0.000132892
-0.000406078
-0.000735536
-0.00114497
-0.00167234
-0.00237954
-0.00337056
-0.00482746
-0.00708626
-0.0108103
-0.0174287
0.0023339
0.00227991
0.00214671
0.00196093
0.00175485
0.00155867
0.00139275
0.0012642
0.00116872
0.001095
0.00102993
0.000962092
0.000883178
0.000787974
0.000673715
0.000539034
0.000382914
0.000203681
-1.85558e-06
-0.000239102
-0.000517083
-0.000850551
-0.00126314
-0.0017928
-0.00250145
-0.00349325
-0.00495055
-0.00720965
-0.0109341
-0.0175522
0.00234667
0.00228933
0.00215181
0.0019592
0.00174383
0.00153738
0.0013616
0.00122447
0.00112155
0.00104156
0.000971005
0.000898261
0.000814614
0.000714699
0.000595527
0.000455752
0.000294338
0.000109794
-0.00010086
-0.000342649
-0.000624544
-0.000961178
-0.00137615
-0.00190731
-0.00261662
-0.00360825
-0.00506476
-0.00732293
-0.0110477
-0.0176704
0.00235871
0.00229847
0.00215428
0.00195364
0.00172984
0.00151469
0.00133027
0.00118486
0.00107451
0.000988036
0.000911871
0.000834042
0.000745636
0.000641033
0.000517175
0.000372642
0.000206484
1.72665e-05
-0.000197586
-0.000443089
-0.000728101
-0.00106719
-0.00148385
-0.00201585
-0.00272508
-0.00371573
-0.00517037
-0.00742589
-0.0111475
-0.0177678
0.00236845
0.00230456
0.00215465
0.00194677
0.00171496
0.00149152
0.00129883
0.00114541
0.00102772
0.000934663
0.000852766
0.000769823
0.000676683
0.000567502
0.000439188
0.000290256
0.000119829
-7.32904e-05
-0.000291598
-0.000540099
-0.000827551
-0.00116847
-0.00158622
-0.00211852
-0.00282718
-0.00381634
-0.00526857
-0.00752102
-0.0112399
-0.017861
0.00237547
0.00230864
0.00215355
0.00193898
0.00169952
0.00146796
0.0012671
0.00110586
0.000980999
0.000881528
0.000793969
0.000705925
0.00060811
0.000494525
0.000362023
0.000209098
3.49628e-05
-0.00016146
-0.000382632
-0.000633533
-0.000922857
-0.00126506
-0.00168343
-0.00221566
-0.00292355
-0.00391135
-0.00536176
-0.00761215
-0.0113288
-0.0179487
0.00237947
0.00231033
0.00215117
0.0019307
0.00168386
0.00144417
0.00123518
0.00106636
0.000934577
0.000828913
0.000735788
0.000642755
0.00054039
0.000422632
0.000286245
0.000129724
-4.75886e-05
-0.00024678
-0.000470316
-0.000723121
-0.00101386
-0.00135693
-0.0017756
-0.00230758
-0.00301472
-0.0040014
-0.00545066
-0.00770049
-0.0114185
-0.0180425
0.00238114
0.00230993
0.00214708
0.00192118
0.00166742
0.00142002
0.0012033
0.00102723
0.000888784
0.000777135
0.000678627
0.000580786
0.000474078
0.000352401
0.000212439
5.28072e-05
-0.000127219
-0.000328732
-0.00055421
-0.000808526
-0.00110033
-0.00144398
-0.00186279
-0.00239447
-0.00310099
-0.00408688
-0.00553542
-0.00778485
-0.0115029
-0.0181273
0.00238195
0.00230849
0.00214123
0.00190963
0.0016495
0.00139533
0.00117165
0.000988738
0.000843953
0.000726549
0.000622895
0.000520463
0.000409673
0.00028438
0.000141288
-2.10558e-05
-0.000203411
-0.000406902
-0.000633981
-0.000889514
-0.00118212
-0.00152617
-0.001945
-0.00247636
-0.00318232
-0.00416749
-0.00561524
-0.00786388
-0.0115811
-0.0182047
0.00238073
0.00230509
0.00213396
0.00189725
0.00163119
0.00137063
0.00114045
0.000951171
0.000800422
0.000677577
0.000569065
0.000462329
0.000347777
0.000219215
7.33199e-05
-9.14317e-05
-0.000275829
-0.000481014
-0.000709427
-0.000965928
-0.00125913
-0.00160342
-0.00202214
-0.00255309
-0.00325837
-0.00424263
-0.00568925
-0.00793657
-0.0116525
-0.0182756
0.0023779
0.00230035
0.00212581
0.00188445
0.00161283
0.00134627
0.00110997
0.000914779
0.000758487
0.000630589
0.00051757
0.000406875
0.000288882
0.000157353
8.9167e-06
-0.00015799
-0.000344183
-0.000550813
-0.000780324
-0.00103757
-0.00133118
-0.00167552
-0.00209398
-0.00262437
-0.00332878
-0.00431193
-0.00575724
-0.0080032
-0.0117181
-0.0183412
0.00237386
0.00229459
0.0021169
0.00187126
0.00159457
0.00132247
0.00108056
0.000879917
0.000718527
0.000586
0.000468864
0.00035457
0.000233458
9.92468e-05
-5.14738e-05
-0.000220294
-0.000408048
-0.000615898
-0.000846293
-0.0011041
-0.00139792
-0.00174218
-0.00216023
-0.00268991
-0.00339337
-0.00437536
-0.00581942
-0.00806426
-0.0117784
-0.0184018
0.00236898
0.00228812
0.00210755
0.00185801
0.0015767
0.0012996
0.0010526
0.000847015
0.000681009
0.000544302
0.000423466
0.00030594
0.000182036
4.54314e-05
-0.000107313
-0.00027781
-0.000466904
-0.000675772
-0.000906869
-0.00116507
-0.00145899
-0.00180306
-0.00222064
-0.00274962
-0.00345215
-0.00443307
-0.00587604
-0.00811989
-0.0118335
-0.0184572
0.0023636
0.00228131
0.00209815
0.0018451
0.00155966
0.00127809
0.00102654
0.000816555
0.000646446
0.000506031
0.000381922
0.000261536
0.000135168
-3.54439e-06
-0.000158062
-0.000330013
-0.000520251
-0.000729964
-0.00096162
-0.0012201
-0.00151406
-0.00185792
-0.00227508
-0.00280345
-0.00350523
-0.00448527
-0.00592729
-0.00817023
-0.0118832
-0.0185072
0.00235822
0.0022747
0.0020892
0.00183302
0.00154392
0.00125842
0.00100288
0.000789077
0.000615445
0.00047185
0.000344918
0.000222067
9.3557e-05
-4.69937e-05
-0.000203056
-0.000376271
-0.000567495
-0.000777925
-0.00101004
-0.00126875
-0.00156272
-0.00190641
-0.00232325
-0.00285116
-0.0035524
-0.00453185
-0.00597326
-0.00821561
-0.011928
-0.018552
0.002353
0.00226851
0.00208121
0.00182244
0.00153019
0.00124124
0.000982266
0.000765233
0.000588692
0.000442527
0.000313324
0.00018847
5.81981e-05
-8.38787e-05
-0.000241239
-0.000415512
-0.000607557
-0.000818572
-0.00105106
-0.00130994
-0.0016039
-0.00194744
-0.00236402
-0.00289162
-0.00359252
-0.00457166
-0.00601287
-0.00825523
-0.011968
-0.0185927
0.00234872
0.00226317
0.00207435
0.00181354
0.00151876
0.00122702
0.000965341
0.000745893
0.00056726
0.000419267
0.000288425
0.000162084
3.04739e-05
-0.000112781
-0.000271144
-0.000446224
-0.000638877
-0.000850303
-0.00108302
-0.00134196
-0.00163585
-0.0019792
-0.00239553
-0.00292284
-0.00362347
-0.00460242
-0.00604358
-0.00828608
-0.0119992
-0.0186243
0.00234728
0.00226088
0.00206929
0.00180488
0.00150672
0.00121237
0.000948832
0.000727937
0.00054794
0.00039847
0.000266031
0.000138035
4.81303e-06
-0.000139943
-0.000299634
-0.000475853
-0.000669437
-0.000881595
-0.00111484
-0.00137413
-0.00166819
-0.00201152
-0.00242762
-0.0029545
-0.00365449
-0.00463263
-0.00607292
-0.0083148
-0.0120283
-0.0186567
0.0142865
0.0139889
0.0125012
0.0103308
0.00753651
0.00424784
0.000629411
-0.00295694
-0.00579289
-0.00723456
-0.00729924
-0.00654021
-0.00553118
-0.00459853
-0.00387019
-0.00336508
-0.00304857
-0.00286866
-0.00277658
-0.00273457
-0.00271647
-0.00270586
-0.00269363
-0.00267571
-0.00265132
-0.00262151
-0.00258815
-0.00255327
-0.00251861
-0.00248546
-0.00245461
-0.0024264
-0.00240088
-0.00237793
-0.00235734
-0.0023389
-0.00232244
-0.00230783
-0.00229496
-0.00228376
-0.00227411
-0.00226594
-0.00225913
-0.00225357
-0.00224915
-0.00224577
-0.00224333
-0.00224178
-0.00224104
-0.00224108
-0.00224185
-0.00224334
-0.00224551
-0.00224835
-0.00225183
-0.00225594
-0.00226065
-0.00226593
-0.00227177
-0.00227815
-0.00228503
-0.00229241
-0.00230026
-0.00230858
-0.00231732
-0.0023265
-0.00233608
-0.00234606
-0.00235642
-0.00236714
-0.00237821
-0.00238963
-0.00240136
-0.00241342
-0.00242577
-0.00243843
-0.00245137
-0.00246459
-0.00247808
-0.00249185
-0.00250586
-0.00252013
-0.00253464
-0.0025494
-0.00256439
-0.00257961
-0.00259505
-0.00261071
-0.00262658
-0.00264265
-0.00265892
-0.0026754
-0.00269206
-0.00270891
-0.00272594
-0.00274316
-0.00276055
-0.00277812
-0.00279586
-0.00281377
-0.00283185
-0.00285009
-0.00286849
-0.00288706
-0.00290577
-0.00292464
-0.00294364
-0.0029628
-0.00298209
-0.00300153
-0.0030211
-0.00304081
-0.00306064
-0.00308062
-0.00310071
-0.00312095
-0.0031413
-0.00316179
-0.00318239
-0.00320311
-0.00322395
-0.00324491
-0.00326598
-0.00328717
-0.00330846
-0.00332987
-0.00335138
-0.00337301
-0.00339473
-0.00341657
-0.0034385
-0.00346055
-0.00348268
-0.00350493
-0.00352726
-0.00354971
-0.00357223
-0.00359486
-0.00361757
-0.00364038
-0.00366326
-0.00368624
-0.0037093
-0.00373246
-0.00375569
-0.00377901
-0.00380241
-0.0038259
-0.00384946
-0.00387311
-0.00389683
-0.00392064
-0.00394452
-0.00396848
-0.00399251
-0.00401663
-0.00404081
-0.00406508
-0.0040894
-0.00411381
-0.00413827
-0.00416282
-0.00418742
-0.00421211
-0.00423684
-0.00426167
-0.00428654
-0.00431149
-0.00433649
-0.00436157
-0.0043867
-0.00441191
-0.00443716
-0.00446249
-0.00448786
-0.00451331
-0.0045388
-0.00456438
-0.00458999
-0.00461568
-0.00464141
-0.00466723
-0.00469307
-0.004719
-0.00474496
-0.004771
-0.00479707
-0.00482322