/*--------------------------------*- C++ -*----------------------------------*\
| =========                 |                                                 |
| \\      /  F ield         | OpenFOAM: The Open Source CFD Toolbox           |
|  \\    /   O peration     | Version:  v2006                                 |
|   \\  /    A nd           | Website:  www.openfoam.com                      |
|    \\/     M anipulation  |                                                 |
\*---------------------------------------------------------------------------*/
FoamFile
{
    version     2.0;
    format      ascii;
    class       surfaceScalarField;
    location    "2.4";
    object      phi;
}
// * * * * * * * * * * * * * * * * * * * * * * * * * * * * * * * * * * * * * //

dimensions      [0 3 -1 0 0 0 0];
oriented        oriented;


internalField   nonuniform List<scalar> 
52390
(
1.17004e-06
-3.19175e-07
1.17007e-06
2.80306e-07
1.17314e-06
-2.56877e-07
1.17327e-06
2.17841e-07
1.17678e-06
-2.07802e-07
1.1769e-06
1.68074e-07
1.18032e-06
-1.67589e-07
1.18021e-06
1.29289e-07
1.18342e-06
-1.35403e-07
1.1831e-06
9.86871e-08
1.18611e-06
-1.09817e-07
1.18557e-06
7.47063e-08
1.18841e-06
-8.92249e-08
1.18764e-06
5.61466e-08
1.19034e-06
-7.2512e-08
1.18931e-06
4.18549e-08
1.19191e-06
-5.8919e-08
1.19057e-06
3.08591e-08
1.19314e-06
-4.78161e-08
1.19138e-06
2.24291e-08
1.19398e-06
-3.85985e-08
1.19166e-06
1.6035e-08
1.19438e-06
-3.05656e-08
1.19129e-06
1.12455e-08
1.19421e-06
-2.26001e-08
1.19028e-06
7.40995e-09
1.19284e-06
-1.15288e-08
1.1866e-06
4.41437e-09
1.18214e-06
1.86504e-08
2.36589e-08
1.15365e-06
1.2271e-06
-3.22009e-07
1.22767e-06
2.79736e-07
1.23154e-06
-2.60756e-07
1.23222e-06
2.17164e-07
1.23607e-06
-2.11654e-07
1.23653e-06
1.67615e-07
1.23992e-06
-1.70977e-07
1.2402e-06
1.29009e-07
1.2431e-06
-1.38301e-07
1.24332e-06
9.8471e-08
1.24571e-06
-1.12205e-07
1.24594e-06
7.44683e-08
1.24779e-06
-9.10708e-08
1.24815e-06
5.57902e-08
1.24938e-06
-7.37493e-08
1.24998e-06
4.12587e-08
1.25049e-06
-5.94336e-08
1.25148e-06
2.98737e-08
1.25109e-06
-4.74309e-08
1.25266e-06
2.08644e-08
1.25112e-06
-3.70566e-08
1.25349e-06
1.3664e-08
1.25045e-06
-2.7531e-08
1.25385e-06
7.85111e-09
1.24898e-06
-1.77285e-08
1.2534e-06
2.98329e-09
1.24636e-06
-4.48687e-09
1.24967e-06
1.1029e-09
1.23779e-06
3.05318e-08
3.89511e-08
1.2225e-06
1.28548e-06
-3.2471e-07
1.28904e-06
2.76181e-07
1.29181e-06
-2.63527e-07
1.29501e-06
2.13967e-07
1.29717e-06
-2.13816e-07
1.30001e-06
1.6477e-07
1.30128e-06
-1.72246e-07
1.30395e-06
1.26343e-07
1.30437e-06
-1.38722e-07
1.30705e-06
9.57874e-08
1.30665e-06
-1.11803e-07
1.30948e-06
7.16343e-08
1.30826e-06
-8.98517e-08
1.31135e-06
5.27027e-08
1.30931e-06
-7.17031e-08
1.31272e-06
3.78441e-08
1.30984e-06
-5.65513e-08
1.3136e-06
2.61109e-08
1.3099e-06
-4.37308e-08
1.31396e-06
1.68082e-08
1.30951e-06
-3.26141e-08
1.31369e-06
9.48896e-09
1.30869e-06
-2.25323e-08
1.3126e-06
3.94025e-09
1.30748e-06
-1.26029e-08
1.3103e-06
1.58161e-10
1.30594e-06
-1.28391e-10
1.30352e-06
3.52565e-09
1.30063e-06
3.34227e-08
6.14504e-08
1.27813e-06
1.34585e-06
-3.2646e-07
1.35199e-06
2.70044e-07
1.35318e-06
-2.64718e-07
1.35868e-06
2.08469e-07
1.35889e-06
-2.14026e-07
1.36385e-06
1.59805e-07
1.36297e-06
-1.71361e-07
1.36756e-06
1.2175e-07
1.36577e-06
-1.36928e-07
1.37017e-06
9.1389e-08
1.36763e-06
-1.0927e-07
1.37192e-06
6.73466e-08
1.3688e-06
-8.67309e-08
1.373e-06
4.85049e-08
1.36943e-06
-6.81369e-08
1.37351e-06
3.37683e-08
1.36964e-06
-5.26831e-08
1.37351e-06
2.22428e-08
1.36949e-06
-3.97118e-08
1.37302e-06
1.32788e-08
1.369e-06
-2.85976e-08
1.37201e-06
6.48122e-09
1.36818e-06
-1.86979e-08
1.37034e-06
1.77364e-09
1.36708e-06
-9.33986e-09
1.36751e-06
-2.73983e-10
1.36577e-06
1.60934e-09
1.36055e-06
8.74942e-09
1.36005e-06
3.39215e-08
8.46566e-08
1.33684e-06
1.40861e-06
-3.26713e-07
1.41613e-06
2.62525e-07
1.41569e-06
-2.64282e-07
1.42242e-06
2.01743e-07
1.42104e-06
-2.12648e-07
1.42704e-06
1.53806e-07
1.42473e-06
-1.69056e-07
1.43007e-06
1.16412e-07
1.42713e-06
-1.33988e-07
1.43195e-06
8.65728e-08
1.42863e-06
-1.05953e-07
1.433e-06
6.29806e-08
1.42951e-06
-8.32427e-08
1.43345e-06
4.45586e-08
1.42994e-06
-6.46223e-08
1.43348e-06
3.02316e-08
1.43003e-06
-4.92327e-08
1.43314e-06
1.91232e-08
1.42981e-06
-3.63752e-08
1.43249e-06
1.06008e-08
1.42928e-06
-2.53963e-08
1.43144e-06
4.32104e-09
1.42844e-06
-1.56962e-08
1.42982e-06
3.97753e-10
1.42733e-06
-6.85518e-09
1.42708e-06
-2.27062e-11
1.42553e-06
3.16446e-09
1.42109e-06
1.31877e-08
1.41819e-06
3.68163e-08
1.10596e-07
1.39226e-06
1.47434e-06
-3.25375e-07
1.48193e-06
2.54935e-07
1.48019e-06
-2.62548e-07
1.48694e-06
1.94999e-07
1.48462e-06
-2.10334e-07
1.49055e-06
1.47875e-07
1.48768e-06
-1.66183e-07
1.49279e-06
1.11301e-07
1.48963e-06
-1.30823e-07
1.49407e-06
8.21305e-08
1.49083e-06
-1.0271e-07
1.49472e-06
5.90872e-08
1.49153e-06
-8.00514e-08
1.49497e-06
4.11171e-08
1.49188e-06
-6.15282e-08
1.49495e-06
2.7163e-08
1.49194e-06
-4.62271e-08
1.49468e-06
1.63824e-08
1.49174e-06
-3.3433e-08
1.49415e-06
8.19277e-09
1.49126e-06
-2.2507e-08
1.49324e-06
2.34359e-09
1.49047e-06
-1.29271e-08
1.49174e-06
-8.75673e-10
1.48921e-06
-4.32275e-09
1.48942e-06
-2.39326e-10
1.4865e-06
6.09234e-09
1.48429e-06
1.53956e-08
1.48318e-06
3.79219e-08
6.42158e-08
1.52956e-06
1.54354e-06
-3.227e-07
1.55036e-06
2.48121e-07
1.54775e-06
-2.59941e-07
1.55377e-06
1.88972e-07
1.55102e-06
-2.07581e-07
1.55633e-06
1.42564e-07
1.55335e-06
-1.63198e-07
1.5579e-06
1.06746e-07
1.55483e-06
-1.27753e-07
1.55881e-06
7.81579e-08
1.55576e-06
-9.96659e-08
1.5593e-06
5.55472e-08
1.55633e-06
-7.7076e-08
1.55955e-06
3.78971e-08
1.55663e-06
-5.8609e-08
1.5596e-06
2.41913e-08
1.5567e-06
-4.33326e-08
1.55944e-06
1.36483e-08
1.55656e-06
-3.05531e-08
1.55899e-06
5.75914e-09
1.55616e-06
-1.96779e-08
1.55812e-06
3.8689e-10
1.55547e-06
-1.02777e-08
1.55657e-06
-1.97441e-09
1.55445e-06
-2.20364e-09
1.55373e-06
4.78801e-10
1.55258e-06
7.24062e-09
1.54767e-06
2.03089e-08
1.54339e-06
4.21966e-08
9.51321e-08
1.51248e-06
1.61648e-06
-3.19056e-07
1.62233e-06
2.42274e-07
1.61913e-06
-2.56743e-07
1.62433e-06
1.83778e-07
1.62131e-06
-2.04563e-07
1.62601e-06
1.37859e-07
1.62295e-06
-1.60134e-07
1.62709e-06
1.0261e-07
1.624e-06
-1.24669e-07
1.62774e-06
7.44255e-08
1.62467e-06
-9.66052e-08
1.62813e-06
5.20922e-08
1.6251e-06
-7.40494e-08
1.62835e-06
3.46471e-08
1.62535e-06
-5.56047e-08
1.62841e-06
2.11263e-08
1.62543e-06
-4.03448e-08
1.62826e-06
1.0818e-08
1.62532e-06
-2.76141e-08
1.62779e-06
3.29004e-09
1.62499e-06
-1.68823e-08
1.62685e-06
-1.47379e-09
1.62436e-06
-7.78597e-09
1.62518e-06
-2.79524e-09
1.62338e-06
-4.0751e-10
1.62202e-06
1.84279e-09
1.62157e-06
7.69424e-09
1.61645e-06
2.54252e-08
1.61167e-06
4.69753e-08
1.31721e-07
1.57508e-06
1.69325e-06
-3.14735e-07
1.69841e-06
2.37116e-07
1.69472e-06
-2.53054e-07
1.69936e-06
1.79139e-07
1.69603e-06
-2.01237e-07
1.70042e-06
1.33475e-07
1.69713e-06
-1.56845e-07
1.70112e-06
9.86169e-08
1.69782e-06
-1.21368e-07
1.70155e-06
7.06942e-08
1.69826e-06
-9.33162e-08
1.70181e-06
4.85423e-08
1.69855e-06
-7.07887e-08
1.70194e-06
3.12574e-08
1.69872e-06
-5.23836e-08
1.70192e-06
1.79278e-08
1.69877e-06
-3.71904e-08
1.70167e-06
7.90952e-09
1.69865e-06
-2.45939e-08
1.7011e-06
8.4e-10
1.69833e-06
-1.41063e-08
1.70008e-06
-3.22711e-09
1.69761e-06
-5.3154e-09
1.69858e-06
-3.76092e-09
1.69574e-06
2.43306e-09
1.69645e-06
1.12741e-09
1.69127e-06
1.28711e-08
1.69576e-06
2.09362e-08
1.69682e-06
4.592e-08
8.22797e-08
1.74626e-06
1.77388e-06
-3.09898e-07
1.77879e-06
2.32213e-07
1.77459e-06
-2.48859e-07
1.77905e-06
1.74679e-07
1.77532e-06
-1.97502e-07
1.77969e-06
1.29099e-07
1.77604e-06
-1.5319e-07
1.78012e-06
9.45309e-08
1.77647e-06
-1.17711e-07
1.78036e-06
6.68029e-08
1.77673e-06
-8.96847e-08
1.78047e-06
4.48042e-08
1.77689e-06
-6.72172e-08
1.78046e-06
2.76943e-08
1.77698e-06
-4.89112e-08
1.7803e-06
1.46135e-08
1.77699e-06
-3.38782e-08
1.77991e-06
4.98879e-09
1.77687e-06
-2.15552e-08
1.77917e-06
-1.46213e-09
1.77655e-06
-1.14845e-08
1.77799e-06
-4.66614e-09
1.77581e-06
-3.13623e-09
1.77631e-06
-4.26008e-09
1.77371e-06
5.02787e-09
1.77428e-06
5.64872e-10
1.76816e-06
1.89885e-08
1.77455e-06
1.45443e-08
1.77618e-06
4.42904e-08
2.65038e-08
1.83196e-06
1.85846e-06
-3.04608e-07
1.86349e-06
2.27184e-07
1.85874e-06
-2.4411e-07
1.86333e-06
1.70092e-07
1.8591e-06
-1.93277e-07
1.8637e-06
1.24499e-07
1.8596e-06
-1.49089e-07
1.86394e-06
9.01895e-08
1.85986e-06
-1.13632e-07
1.86402e-06
6.26498e-08
1.86e-06
-8.56705e-08
1.86398e-06
4.08272e-08
1.86009e-06
-6.33239e-08
1.86383e-06
2.39523e-08
1.86013e-06
-4.52099e-08
1.86352e-06
1.12209e-08
1.86011e-06
-3.04664e-08
1.86296e-06
2.1336e-09
1.86e-06
-1.85887e-08
1.86204e-06
-3.50843e-09
1.85969e-06
-9.13596e-09
1.86067e-06
-5.63716e-09
1.85899e-06
-1.45638e-09
1.85859e-06
-3.86395e-09
1.8574e-06
6.22001e-09
1.85529e-06
2.67138e-09
1.8536e-06
2.06835e-08
1.84857e-06
1.95669e-08
1.83878e-06
5.40793e-08
6.23974e-08
1.80289e-06
1.94711e-06
-2.98882e-07
1.95253e-06
2.21766e-07
1.94718e-06
-2.38756e-07
1.9521e-06
1.65173e-07
1.94733e-06
-1.88507e-07
1.95231e-06
1.19519e-07
1.94772e-06
-1.445e-07
1.95242e-06
8.54859e-08
1.94789e-06
-1.09106e-07
1.95237e-06
5.81699e-08
1.94797e-06
-8.12693e-08
1.95222e-06
3.65839e-08
1.94802e-06
-5.91316e-08
1.95193e-06
2.00434e-08
1.94806e-06
-4.1335e-08
1.95148e-06
7.80298e-09
1.94806e-06
-2.70469e-08
1.95075e-06
-5.61646e-10
1.94798e-06
-1.58145e-08
1.94966e-06
-5.19183e-09
1.94769e-06
-7.16894e-09
1.94811e-06
-6.05392e-09
1.947e-06
-3.4146e-10
1.94579e-06
-2.65694e-09
1.94543e-06
6.5801e-09
1.94181e-06
6.29285e-09
1.94277e-06
1.97252e-08
1.9316e-06
3.07305e-08
1.92697e-06
5.87081e-08
9.36341e-08
1.89574e-06
2.04002e-06
-2.92716e-07
2.046e-06
2.15793e-07
2.03999e-06
-2.32748e-07
2.04537e-06
1.59791e-07
2.04001e-06
-1.8315e-07
2.04547e-06
1.14062e-07
2.04037e-06
-1.39397e-07
2.0455e-06
8.03527e-08
2.04052e-06
-1.04126e-07
2.04536e-06
5.33286e-08
2.04059e-06
-7.64983e-08
2.0451e-06
3.20751e-08
2.04066e-06
-5.46887e-08
2.04469e-06
1.6008e-08
2.04073e-06
-3.73724e-08
2.04409e-06
4.44395e-09
2.04079e-06
-2.37477e-08
2.0432e-06
-2.96986e-09
2.04076e-06
-1.33826e-08
2.04197e-06
-6.39228e-09
2.04049e-06
-5.69616e-09
2.0403e-06
-5.86396e-09
2.03965e-06
3.11767e-10
2.03811e-06
-1.12049e-09
2.03736e-06
7.33087e-09
2.03418e-06
9.47043e-09
2.03309e-06
2.08234e-08
2.02604e-06
3.77801e-08
2.01454e-06
7.02074e-08
1.26893e-07
1.98128e-06
2.13738e-06
-2.86099e-07
2.14402e-06
2.09155e-07
2.13731e-06
-2.26034e-07
2.14324e-06
1.53861e-07
2.13726e-06
-1.77169e-07
2.14326e-06
1.0806e-07
2.13762e-06
-1.33762e-07
2.14323e-06
7.47519e-08
2.1378e-06
-9.86957e-08
2.143e-06
4.81197e-08
2.1379e-06
-7.13904e-08
2.14264e-06
2.73294e-08
2.13802e-06
-5.00623e-08
2.14211e-06
1.19132e-08
2.13816e-06
-3.34253e-08
2.14136e-06
1.24449e-09
2.13831e-06
-2.06899e-08
2.14033e-06
-4.99062e-09
2.13834e-06
-1.13949e-08
2.139e-06
-7.05523e-09
2.138e-06
-4.69779e-09
2.13749e-06
-5.34608e-09
2.1366e-06
1.19751e-09
2.13576e-06
-2.80918e-10
2.13353e-06
9.56454e-09
2.13166e-06
1.13328e-08
2.12603e-06
2.64561e-08
2.132e-06
3.18077e-08
2.15564e-06
4.65697e-08
5.2004e-08
2.23053e-06
2.23941e-06
-2.79018e-07
2.24679e-06
2.01772e-07
2.23932e-06
-2.18566e-07
2.24586e-06
1.4732e-07
2.23922e-06
-1.70529e-07
2.24581e-06
1.01475e-07
2.23963e-06
-1.27586e-07
2.24571e-06
6.86707e-08
2.23985e-06
-9.2835e-08
2.24541e-06
4.25664e-08
2.24002e-06
-6.60014e-08
2.24494e-06
2.24117e-08
2.24022e-06
-4.53515e-08
2.24427e-06
7.86957e-09
2.24048e-06
-2.96395e-08
2.24337e-06
-1.63849e-09
2.24073e-06
-1.80526e-08
2.2422e-06
-6.45859e-09
2.24082e-06
-1.00181e-08
2.24079e-06
-7.0274e-09
2.24046e-06
-4.36651e-09
2.23912e-06
-4.00538e-09
2.23924e-06
1.08102e-09
2.23688e-06
2.07357e-09
2.23627e-06
1.01719e-08
2.23286e-06
1.47463e-08
2.23045e-06
2.88663e-08
2.22341e-06
3.88473e-08
2.20737e-06
6.26086e-08
8.28585e-08
2.17652e-06
2.34631e-06
-2.71452e-07
2.3545e-06
1.93584e-07
2.34623e-06
-2.10295e-07
2.35342e-06
1.40124e-07
2.3461e-06
-1.63202e-07
2.35329e-06
9.42818e-08
2.34657e-06
-1.20868e-07
2.35313e-06
6.21168e-08
2.34687e-06
-8.65775e-08
2.35272e-06
3.67158e-08
2.34712e-06
-6.04057e-08
2.35212e-06
1.74121e-08
2.34745e-06
-4.06741e-08
2.35131e-06
4.00897e-09
2.34784e-06
-2.61712e-08
2.35025e-06
-4.04625e-09
2.34819e-06
-1.59939e-08
2.34898e-06
-7.25223e-09
2.3483e-06
-9.33504e-09
2.34755e-06
-6.27623e-09
2.3479e-06
-4.72335e-09
2.3456e-06
-1.69908e-09
2.347e-06
-3.24952e-10
2.34275e-06
6.32859e-09
2.34445e-06
8.47168e-09
2.33856e-06
2.06323e-08
2.33944e-06
2.79892e-08
2.32462e-06
5.36636e-08
2.31508e-06
7.21541e-08
1.07102e-07
2.29083e-06
2.45833e-06
-2.6339e-07
2.46737e-06
1.8455e-07
2.45826e-06
-2.01184e-07
2.46613e-06
1.32247e-07
2.45811e-06
-1.55177e-07
2.4659e-06
8.64851e-08
2.45867e-06
-1.13632e-07
2.46566e-06
5.51293e-08
2.45907e-06
-7.99873e-08
2.46513e-06
3.06518e-08
2.45944e-06
-5.47122e-08
2.46439e-06
1.24554e-08
2.45989e-06
-3.61693e-08
2.46343e-06
4.67415e-10
2.4604e-06
-2.31437e-08
2.46225e-06
-5.89635e-09
2.4608e-06
-1.45413e-08
2.461e-06
-7.45081e-09
2.46075e-06
-9.09041e-09
2.45978e-06
-5.30143e-09
2.45995e-06
-4.89706e-09
2.4584e-06
-1.50705e-10
2.45818e-06
-1.02839e-10
2.456e-06
8.5131e-09
2.45452e-06
9.94831e-09
2.45136e-06
2.37896e-08
2.44882e-06
3.0532e-08
2.44068e-06
6.18003e-08
2.42251e-06
9.03255e-08
1.41301e-07
2.38831e-06
2.57573e-06
-2.54824e-07
2.58564e-06
1.74643e-07
2.57566e-06
-1.91213e-07
2.58423e-06
1.23685e-07
2.57551e-06
-1.4646e-07
2.58388e-06
7.8111e-08
2.57618e-06
-1.05925e-07
2.58353e-06
4.77748e-08
2.5767e-06
-7.31575e-08
2.58286e-06
2.44905e-08
2.57721e-06
-4.90603e-08
2.58197e-06
7.6928e-09
2.5778e-06
-3.19922e-08
2.58088e-06
-2.61205e-09
2.5784e-06
-2.06716e-08
2.57964e-06
-7.13622e-09
2.57877e-06
-1.36661e-08
2.57851e-06
-7.18848e-09
2.57846e-06
-9.0432e-09
2.57765e-06
-4.49093e-09
2.57694e-06
-4.18883e-09
2.57715e-06
-3.57853e-10
2.57419e-06
2.85675e-09
2.57529e-06
7.41087e-09
2.56984e-06
1.53985e-08
2.5691e-06
2.45337e-08
2.56121e-06
3.84202e-08
2.57821e-06
4.47949e-08
2.614e-06
5.45368e-08
5.44707e-08
2.70083e-06
2.69876e-06
-2.45751e-07
2.70955e-06
1.63845e-07
2.69871e-06
-1.80373e-07
2.70795e-06
1.14447e-07
2.69857e-06
-1.37079e-07
2.70747e-06
6.9209e-08
2.69937e-06
-9.78215e-08
2.70699e-06
4.01519e-08
2.70005e-06
-6.62196e-08
2.70615e-06
1.83927e-08
2.70073e-06
-4.36357e-08
2.70509e-06
3.32584e-09
2.70146e-06
-2.83622e-08
2.70386e-06
-5.011e-09
2.70213e-06
-1.89407e-08
2.70263e-06
-7.62868e-09
2.70245e-06
-1.34891e-08
2.70152e-06
-6.26171e-09
2.70208e-06
-9.60182e-09
2.70049e-06
-2.90191e-09
2.70101e-06
-4.7088e-09
2.6991e-06
1.54933e-09
2.69882e-06
3.1384e-09
2.69654e-06
9.69763e-09
2.69462e-06
1.73154e-08
2.69171e-06
2.74389e-08
2.6882e-06
4.19334e-08
2.67914e-06
5.38565e-08
2.65799e-06
7.56887e-08
8.93126e-08
2.62314e-06
2.82768e-06
-2.36167e-07
2.83938e-06
1.52146e-07
2.82768e-06
-1.68666e-07
2.83757e-06
1.0455e-07
2.82756e-06
-1.27066e-07
2.83693e-06
5.9838e-08
2.82851e-06
-8.94004e-08
2.8363e-06
3.23612e-08
2.82938e-06
-5.92974e-08
2.83529e-06
1.24829e-08
2.83018e-06
-3.85263e-08
2.8341e-06
-5.98232e-10
2.83104e-06
-2.53029e-08
2.83278e-06
-6.7454e-09
2.83173e-06
-1.78922e-08
2.83159e-06
-7.48529e-09
2.83193e-06
-1.38331e-08
2.83054e-06
-4.8745e-09
2.8316e-06
-1.06579e-08
2.82912e-06
-4.24058e-10
2.83104e-06
-6.6266e-09
2.82669e-06
5.89557e-09
2.82991e-06
-7.69413e-11
2.82339e-06
1.62119e-08
2.82694e-06
1.37718e-08
2.81926e-06
3.51202e-08
2.82034e-06
4.08493e-08
2.79974e-06
7.44528e-08
2.7903e-06
8.51283e-08
1.14063e-07
2.76555e-06
2.96281e-06
-2.2608e-07
2.97539e-06
1.39566e-07
2.96286e-06
-1.56133e-07
2.97335e-06
9.40588e-08
2.96278e-06
-1.16503e-07
2.97251e-06
5.01161e-08
2.96391e-06
-8.08082e-08
2.97169e-06
2.45856e-08
2.96501e-06
-5.2618e-08
2.97044e-06
7.05666e-09
2.96609e-06
-3.41846e-08
2.96899e-06
-3.4957e-09
2.96705e-06
-2.33561e-08
2.96775e-06
-7.44646e-09
2.96754e-06
-1.76905e-08
2.96683e-06
-6.76913e-09
2.96739e-06
-1.43908e-08
2.96614e-06
-3.62889e-09
2.96674e-06
-1.12562e-08
2.96513e-06
1.18077e-09
2.96533e-06
-6.82334e-09
2.9634e-06
7.82561e-09
2.96321e-06
1.15542e-10
2.95999e-06
1.94261e-08
2.95834e-06
1.54211e-08
2.95581e-06
3.76511e-08
2.9531e-06
4.35615e-08
2.94208e-06
8.54695e-08
2.91662e-06
1.10597e-07
1.51984e-07
2.8787e-06
3.10444e-06
-2.15517e-07
3.11787e-06
1.26143e-07
3.10457e-06
-1.42838e-07
3.11558e-06
8.30535e-08
3.10456e-06
-1.05486e-07
3.11451e-06
4.01638e-08
3.10588e-06
-7.21754e-08
3.11351e-06
1.6955e-08
3.10718e-06
-4.62845e-08
3.11212e-06
2.11331e-09
3.10828e-06
-3.03493e-08
3.11076e-06
-5.97358e-09
3.10902e-06
-2.16149e-08
3.10994e-06
-8.36794e-09
3.10883e-06
-1.65738e-08
3.10987e-06
-7.81084e-09
3.10765e-06
-1.21766e-08
3.11024e-06
-6.21711e-09
3.10557e-06
-6.58068e-09
3.11064e-06
-3.89524e-09
3.10269e-06
1.12869e-09
3.11039e-06
1.25544e-10
3.09974e-06
1.07603e-08
3.10776e-06
1.14107e-08
3.0955e-06
2.76815e-08
3.09891e-06
3.42374e-08
3.08835e-06
5.41228e-08
3.12118e-06
5.2638e-08
3.16727e-06
6.45074e-08
5.98715e-08
3.25939e-06
3.25291e-06
-2.04512e-07
3.26711e-06
1.11939e-07
3.25316e-06
-1.28891e-07
3.26456e-06
7.16559e-08
3.25323e-06
-9.41579e-08
3.26323e-06
3.01612e-08
3.25477e-06
-6.37081e-08
3.26201e-06
9.71267e-09
3.25633e-06
-4.06055e-08
3.26037e-06
-1.92357e-09
3.25766e-06
-2.76393e-08
3.25888e-06
-7.19254e-09
3.25849e-06
-2.12314e-08
3.25791e-06
-7.78316e-09
3.2586e-06
-1.72627e-08
3.25723e-06
-6.44332e-09
3.25843e-06
-1.33723e-08
3.25614e-06
-3.93674e-09
3.25823e-06
-8.66643e-09
3.25432e-06
1.43896e-11
3.25762e-06
-2.1691e-09
3.25155e-06
6.19515e-09
3.2553e-06
7.01264e-09
3.24812e-06
1.85897e-08
3.25203e-06
2.37741e-08
3.24581e-06
4.04509e-08
3.2473e-06
5.26394e-08
3.22658e-06
7.33539e-08
3.20302e-06
8.80647e-08
1.01707e-07
3.16119e-06
3.40852e-06
-1.93098e-07
3.42343e-06
9.70298e-08
3.40896e-06
-1.14425e-07
3.4206e-06
6.00124e-08
3.40912e-06
-8.2679e-08
3.41897e-06
2.03172e-08
3.4109e-06
-5.56396e-08
3.41749e-06
3.12759e-09
3.4128e-06
-3.59166e-08
3.41554e-06
-4.66454e-09
3.41435e-06
-2.64481e-08
3.41396e-06
-6.80829e-09
3.41513e-06
-2.23945e-08
3.41302e-06
-5.6822e-09
3.41526e-06
-1.94959e-08
3.41219e-06
-3.37098e-09
3.41533e-06
-1.65155e-08
3.4109e-06
4.94171e-10
3.41491e-06
-1.26796e-08
3.40919e-06
5.73338e-09
3.41424e-06
-7.21399e-09
3.4062e-06
1.42342e-08
3.41213e-06
1.08488e-09
3.40293e-06
2.77812e-08
3.40795e-06
1.87558e-08
3.40169e-06
4.67151e-08
3.40648e-06
4.78452e-08
3.3821e-06
9.77349e-08
3.35509e-06
1.15078e-07
1.46195e-07
3.3106e-06
3.57165e-06
-1.8134e-07
3.58714e-06
8.15451e-08
3.57234e-06
-9.96276e-08
3.58405e-06
4.83035e-08
3.57257e-06
-7.1204e-08
3.58212e-06
1.07672e-08
3.57445e-06
-4.79635e-08
3.58065e-06
-3.06934e-09
3.57619e-06
-3.14636e-08
3.57914e-06
-7.60893e-09
3.577e-06
-2.43129e-08
3.5786e-06
-8.40749e-09
3.57656e-06
-2.03558e-08
3.57901e-06
-8.13314e-09
3.5751e-06
-1.55848e-08
3.57993e-06
-8.19701e-09
3.5728e-06
-9.39109e-09
3.5814e-06
-8.10129e-09
3.56975e-06
-1.0292e-09
3.58195e-06
-6.47037e-09
3.56655e-06
8.18843e-09
3.5821e-06
-1.31481e-09
3.56346e-06
1.97285e-08
3.57977e-06
1.14698e-08
3.55949e-06
3.90352e-08
3.5697e-06
3.6506e-08
3.55557e-06
6.19693e-08
3.60405e-06
4.92611e-08
3.65613e-06
6.29947e-08
5.83076e-08
3.74402e-06
3.74269e-06
-1.69321e-07
3.75858e-06
6.56501e-08
3.74372e-06
-8.4766e-08
3.75524e-06
3.67837e-08
3.74402e-06
-5.9983e-08
3.75294e-06
1.85048e-09
3.74607e-06
-4.10943e-08
3.75129e-06
-8.29497e-09
3.74798e-06
-2.8156e-08
3.74962e-06
-9.24182e-09
3.7492e-06
-2.38912e-08
3.74838e-06
-7.59098e-09
3.74995e-06
-2.1932e-08
3.74692e-06
-5.09529e-09
3.75083e-06
-1.94965e-08
3.74521e-06
-2.57386e-09
3.75136e-06
-1.55465e-08
3.74335e-06
-9.28644e-11
3.7516e-06
-9.28048e-09
3.74172e-06
3.41654e-09
3.74976e-06
1.45338e-10
3.73912e-06
9.32861e-09
3.74664e-06
1.22092e-08
3.73699e-06
2.11113e-08
3.74478e-06
3.12468e-08
3.73796e-06
4.33318e-08
3.73767e-06
6.22517e-08
3.71439e-06
7.25427e-08
3.68398e-06
9.34118e-08
1.07527e-07
3.63476e-06
3.92198e-06
-1.57109e-07
3.93808e-06
4.95437e-08
3.9235e-06
-7.01864e-08
3.9345e-06
2.57839e-08
3.92388e-06
-4.93549e-08
3.93173e-06
-5.99941e-09
3.92595e-06
-3.53212e-08
3.93014e-06
-1.24841e-08
3.92773e-06
-2.57412e-08
3.92871e-06
-1.02236e-08
3.92882e-06
-2.40027e-08
3.92737e-06
-6.13829e-09
3.93014e-06
-2.47033e-08
3.9252e-06
-1.59737e-10
3.93149e-06
-2.57807e-08
3.92281e-06
6.10526e-09
3.93308e-06
-2.58203e-08
3.91977e-06
1.32205e-08
3.93436e-06
-2.38685e-08
3.9163e-06
2.14695e-08
3.93484e-06
-1.8392e-08
3.913e-06
3.11674e-08
3.93355e-06
-8.33724e-09
3.91132e-06
4.33398e-08
3.93374e-06
8.82938e-09
3.91537e-06
6.17028e-08
3.93625e-06
4.13702e-08
3.8905e-06
1.18292e-07
3.85793e-06
1.25979e-07
1.55302e-07
3.81016e-06
4.10995e-06
-1.44808e-07
4.12604e-06
3.34492e-08
4.11207e-06
-5.6212e-08
4.12237e-06
1.54811e-08
4.11219e-06
-3.91724e-08
4.11954e-06
-1.33454e-08
4.11368e-06
-2.94638e-08
4.11897e-06
-1.7781e-08
4.11388e-06
-2.06471e-08
4.11963e-06
-1.59729e-08
4.11259e-06
-1.6961e-08
4.12093e-06
-1.44813e-08
4.11045e-06
-1.4223e-08
4.12256e-06
-1.22702e-08
4.10826e-06
-1.14818e-08
4.12359e-06
-9.22229e-09
4.10624e-06
-8.47274e-09
4.12405e-06
-4.58602e-09
4.10444e-06
-4.25577e-09
4.12348e-06
2.42844e-09
4.10287e-06
2.21167e-09
4.121e-06
1.30426e-08
4.10068e-06
1.19808e-08
4.11663e-06
2.73868e-08
4.09797e-06
2.7489e-08
4.11611e-06
4.35689e-08
4.10756e-06
4.99151e-08
4.15826e-06
6.75979e-08
4.21033e-06
7.39082e-08
8.52191e-08
4.28041e-06
4.30707e-06
-1.32577e-07
4.32278e-06
1.77416e-08
4.31031e-06
-4.37476e-08
4.31898e-06
6.81745e-09
4.31019e-06
-3.03796e-08
4.31556e-06
-1.87243e-08
4.31142e-06
-2.53221e-08
4.31512e-06
-2.14733e-08
4.31149e-06
-1.70211e-08
4.31598e-06
-2.04623e-08
4.31027e-06
-1.12538e-08
4.3172e-06
-2.1408e-08
4.30834e-06
-5.36182e-09
4.31883e-06
-2.27584e-08
4.30583e-06
1.51269e-09
4.32011e-06
-2.35055e-08
4.30358e-06
8.05893e-09
4.32086e-06
-2.18677e-08
4.30137e-06
1.52348e-08
4.32059e-06
-1.67924e-08
4.29917e-06
2.36395e-08
4.31929e-06
-7.08047e-09
4.29672e-06
3.45551e-08
4.31491e-06
9.19292e-09
4.29298e-06
4.94223e-08
4.31216e-06
2.43888e-08
4.31044e-06
5.16266e-08
4.36137e-06
1.66698e-08
4.40968e-06
2.55998e-08
4.28383e-09
4.49062e-06
4.51381e-06
-1.20615e-07
4.52861e-06
2.94712e-09
4.51947e-06
-3.46079e-08
4.52495e-06
1.33136e-09
4.51795e-06
-2.33802e-08
4.52086e-06
-2.16283e-08
4.51885e-06
-2.33198e-08
4.5196e-06
-2.22199e-08
4.51986e-06
-1.72833e-08
4.51926e-06
-1.98567e-08
4.52108e-06
-1.30804e-08
4.51811e-06
-1.84367e-08
4.52195e-06
-9.19822e-09
4.51657e-06
-1.73799e-08
4.52263e-06
-4.54366e-09
4.51515e-06
-1.60255e-08
4.52268e-06
5.30289e-10
4.51384e-06
-1.30328e-08
4.52181e-06
7.26706e-09
4.51191e-06
-6.8951e-09
4.51896e-06
1.65946e-08
4.50813e-06
3.74964e-09
4.51288e-06
2.98055e-08
4.50428e-06
1.77856e-08
4.51203e-06
4.16743e-08
4.50485e-06
3.15729e-08
4.50851e-06
4.79653e-08
4.47998e-06
4.51997e-08
4.44233e-06
6.32474e-08
6.19355e-08
4.38468e-06
4.73039e-06
-1.08895e-07
4.74458e-06
-1.12404e-08
4.73647e-06
-2.64989e-08
4.74159e-06
-3.78653e-09
4.7351e-06
-1.68889e-08
4.73664e-06
-2.31664e-08
4.73562e-06
-2.22997e-08
4.73487e-06
-2.14732e-08
4.73774e-06
-2.01496e-08
4.73379e-06
-1.59093e-08
4.73962e-06
-1.89133e-08
4.73186e-06
-1.06704e-08
4.74112e-06
-1.84644e-08
4.72949e-06
-5.74262e-09
4.74264e-06
-1.77001e-08
4.72732e-06
-7.06405e-10
4.74321e-06
-1.53583e-08
4.72566e-06
4.52006e-09
4.7428e-06
-9.87921e-09
4.7242e-06
1.17056e-08
4.74125e-06
-4.48562e-10
4.72271e-06
2.22874e-08
4.73987e-06
1.26403e-08
4.72276e-06
3.48958e-08
4.73661e-06
2.78255e-08
4.71438e-06
5.38074e-08
4.71149e-06
5.08538e-08
4.68667e-06
7.00205e-08
4.68021e-06
6.97045e-08
9.436e-08
4.64779e-06
4.95775e-06
-9.78484e-08
4.96944e-06
-2.2926e-08
4.96706e-06
-2.41197e-08
4.96598e-06
-2.71158e-09
4.96606e-06
-1.69628e-08
4.96119e-06
-1.83037e-08
4.96414e-06
-2.52507e-08
4.96049e-06
-1.78227e-08
4.96498e-06
-2.46377e-08
4.96059e-06
-1.15194e-08
4.96562e-06
-2.3937e-08
4.96016e-06
-5.2175e-09
4.96572e-06
-2.40177e-08
4.95945e-06
5.20938e-10
4.96509e-06
-2.33341e-08
4.95924e-06
5.13839e-09
4.96428e-06
-2.03938e-08
4.95783e-06
1.09649e-08
4.96143e-06
-1.34764e-08
4.95405e-06
1.9088e-08
4.95601e-06
-2.41488e-09
4.94936e-06
2.89434e-08
4.95074e-06
1.12587e-08
4.94706e-06
3.85747e-08
4.94747e-06
2.74157e-08
4.94928e-06
5.19986e-08
4.94715e-06
5.29868e-08
4.91866e-06
9.85113e-08
4.87516e-06
1.13197e-07
1.3091e-07
4.83861e-06
5.19568e-06
-8.7207e-08
5.20697e-06
-3.42224e-08
5.20261e-06
-1.97567e-08
5.20673e-06
-6.83274e-09
5.19822e-06
-8.45524e-09
5.20485e-06
-2.49268e-08
5.1955e-06
-1.59095e-08
5.20629e-06
-2.86132e-08
5.19382e-06
-1.21638e-08
5.20846e-06
-2.61635e-08
5.19176e-06
-7.23019e-09
5.21015e-06
-2.36062e-08
5.1895e-06
-3.37503e-09
5.21152e-06
-2.1497e-08
5.18778e-06
4.07682e-10
5.21154e-06
-1.86257e-08
5.1871e-06
4.05495e-09
5.21071e-06
-1.26466e-08
5.18678e-06
1.04508e-08
5.20941e-06
-3.53913e-09
5.18676e-06
2.02291e-08
5.20563e-06
1.00751e-08
5.18231e-06
3.45781e-08
5.19291e-06
2.79811e-08
5.17273e-06
4.7595e-08
5.18441e-06
4.03173e-08
5.19027e-06
4.71261e-08
5.26244e-06
2.63349e-08
5.34941e-06
2.62305e-08
2.69903e-08
5.45333e-06
5.44555e-06
-7.75711e-08
5.45216e-06
-4.08298e-08
5.45592e-06
-2.35175e-08
5.45018e-06
-1.09215e-09
5.45554e-06
-1.38133e-08
5.44613e-06
-1.55143e-08
5.45255e-06
-2.23315e-08
5.44583e-06
-2.18932e-08
5.45208e-06
-1.8417e-08
5.44697e-06
-2.1048e-08
5.45185e-06
-1.21166e-08
5.44777e-06
-1.95288e-08
5.45089e-06
-6.49183e-09
5.44652e-06
-1.71203e-08
5.44855e-06
-1.6273e-09
5.44418e-06
-1.42539e-08
5.44462e-06
3.61325e-09
5.44148e-06
-9.50262e-09
5.44261e-06
9.31468e-09
5.43875e-06
3.20121e-10
5.43929e-06
1.96927e-08
5.43521e-06
1.4157e-08
5.43555e-06
3.42368e-08
5.43356e-06
2.99668e-08
5.43479e-06
4.63718e-08
5.43406e-06
4.10476e-08
5.42344e-06
5.77395e-08
5.39716e-06
5.26189e-08
5.35865e-06
6.47389e-08
6.48978e-08
5.32074e-06
5.70691e-06
-6.85261e-08
5.71277e-06
-4.66916e-08
5.71489e-06
-2.56327e-08
5.71525e-06
-1.45509e-09
5.71498e-06
-1.35362e-08
5.7109e-06
-1.14379e-08
5.71109e-06
-2.25231e-08
5.70723e-06
-1.80326e-08
5.7113e-06
-2.24879e-08
5.7077e-06
-1.74482e-08
5.71323e-06
-1.76485e-08
5.70737e-06
-1.36687e-08
5.71358e-06
-1.26962e-08
5.70633e-06
-9.8741e-09
5.71354e-06
-8.83376e-09
5.70468e-06
-5.40038e-09
5.71218e-06
-3.87994e-09
5.70197e-06
7.07825e-10
5.707e-06
4.28721e-09
5.69773e-06
9.58265e-09
5.70242e-06
1.50017e-08
5.6955e-06
2.10764e-08
5.70059e-06
2.9149e-08
5.69352e-06
3.70368e-08
5.69381e-06
4.60867e-08
5.68134e-06
5.35168e-08
5.67644e-06
6.26328e-08
5.65931e-06
6.97569e-08
5.64438e-06
7.96699e-08
8.78026e-08
5.62147e-06
5.98103e-06
-6.03677e-08
5.98132e-06
-4.69726e-08
5.9888e-06
-3.312e-08
5.9877e-06
-3.55778e-10
5.99013e-06
-1.59639e-08
5.98174e-06
-3.05045e-09
5.9875e-06
-2.82759e-08
5.97901e-06
-9.5484e-09
5.98813e-06
-3.16015e-08
5.97932e-06
-8.64012e-09
5.98847e-06
-2.68046e-08
5.97967e-06
-4.86676e-09
5.98727e-06
-2.0298e-08
5.97877e-06
-1.37183e-09
5.98294e-06
-1.29996e-08
5.97566e-06
1.87419e-09
5.97864e-06
-6.85976e-09
5.97297e-06
6.38098e-09
5.97573e-06
1.52815e-09
5.97061e-06
1.47054e-08
5.97347e-06
1.21422e-08
5.96882e-06
2.57219e-08
5.97238e-06
2.55924e-08
5.96733e-06
4.20875e-08
5.96683e-06
4.65862e-08
5.95493e-06
6.54129e-08
5.94878e-06
6.87793e-08
5.93188e-06
8.66616e-08
5.9192e-06
9.23469e-08
1.02791e-07
5.90421e-06
6.26824e-06
-5.31201e-08
6.26552e-06
-4.42485e-08
6.27629e-06
-4.38889e-08
6.27042e-06
5.51167e-09
6.27873e-06
-2.42758e-08
6.26605e-06
9.62595e-09
6.27583e-06
-3.80494e-08
6.26441e-06
1.86581e-09
6.27607e-06
-4.32626e-08
6.26482e-06
2.61236e-09
6.27604e-06
-3.8022e-08
6.265e-06
6.1715e-09
6.27516e-06
-3.04569e-08
6.26454e-06
9.24461e-09
6.27354e-06
-2.19921e-08
6.2621e-06
1.33072e-08
6.26819e-06
-1.29498e-08
6.25807e-06
1.65009e-08
6.26342e-06
-3.81577e-09
6.25626e-06
2.18625e-08
6.25959e-06
8.81268e-09
6.25314e-06
3.21706e-08
6.25515e-06
2.35794e-08
6.25283e-06
4.44118e-08
6.26046e-06
3.89523e-08
6.25638e-06
6.94979e-08
6.24743e-06
7.77237e-08
6.21273e-06
1.2137e-07
6.16407e-06
1.41002e-07
1.29496e-07
6.13736e-06
6.56774e-06
-4.53894e-08
6.57733e-06
-5.38389e-08
6.56168e-06
-2.82415e-08
6.5807e-06
-1.35105e-08
6.56145e-06
-5.01746e-09
6.58178e-06
-1.07093e-08
6.55989e-06
-1.61588e-08
6.58161e-06
-1.98529e-08
6.5598e-06
-2.1455e-08
6.58171e-06
-1.92962e-08
6.55985e-06
-1.61575e-08
6.58112e-06
-1.51042e-08
6.56009e-06
-9.42958e-09
6.57985e-06
-1.0514e-08
6.56024e-06
-2.38255e-09
6.57819e-06
-4.63825e-09
6.56057e-06
4.6712e-09
6.57422e-06
2.84967e-09
6.55768e-06
1.27177e-08
6.56633e-06
1.32137e-08
6.5542e-06
2.09456e-08
6.56111e-06
2.52656e-08
6.54791e-06
3.67708e-08
6.55019e-06
4.21408e-08
6.54169e-06
4.74518e-08
6.5693e-06
4.18853e-08
6.60365e-06
4.33709e-08
6.68519e-06
3.98333e-08
6.7853e-06
4.0888e-08
5.86925e-08
6.85611e-06
6.8845e-06
-4.01036e-08
6.87813e-06
-4.74674e-08
6.8903e-06
-4.04116e-08
6.8832e-06
-6.40945e-09
6.8938e-06
-1.56118e-08
6.88359e-06
-5.06032e-10
6.88975e-06
-2.23138e-08
6.88178e-06
-1.18798e-08
6.8867e-06
-2.63751e-08
6.88041e-06
-1.30066e-08
6.88557e-06
-2.1323e-08
6.87891e-06
-8.44559e-09
6.88356e-06
-1.40765e-08
6.87571e-06
-2.66337e-09
6.88033e-06
-6.99951e-09
6.87284e-06
2.84878e-09
6.87722e-06
2.94909e-10
6.87067e-06
9.39708e-09
6.87401e-06
9.37199e-09
6.86915e-06
1.80734e-08
6.87175e-06
1.83531e-08
6.87241e-06
2.46062e-08
6.88627e-06
2.2906e-08
6.89913e-06
2.92816e-08
6.91015e-06
3.64305e-08
6.89665e-06
5.5388e-08
6.86925e-06
7.0765e-08
6.81663e-06
9.24562e-08
6.75046e-06
1.0706e-07
8.1918e-08
6.72723e-06
7.21244e-06
-3.34061e-08
7.22457e-06
-5.96008e-08
7.2023e-06
-1.81391e-08
7.22644e-06
-3.05458e-08
7.20288e-06
7.94731e-09
7.2282e-06
-2.5833e-08
7.20236e-06
3.52997e-09
7.22735e-06
-3.68673e-08
7.20361e-06
-2.6401e-09
7.22567e-06
-3.50656e-08
7.20494e-06
-5.95912e-10
7.22401e-06
-2.75089e-08
7.20633e-06
3.59992e-09
7.22151e-06
-1.78458e-08
7.20559e-06
8.92632e-09
7.21641e-06
-7.96817e-09
7.2013e-06
1.53988e-08
7.20884e-06
1.85476e-09
7.19775e-06
2.04657e-08
7.20479e-06
1.10292e-08
7.19684e-06
2.63063e-08
7.20177e-06
1.96762e-08
7.18957e-06
3.51023e-08
7.19e-06
2.88548e-08
7.19021e-06
3.62257e-08
7.22172e-06
2.38699e-08
7.26879e-06
2.36947e-08
7.3524e-06
8.85181e-09
7.4559e-06
3.56183e-09