/*--------------------------------*- C++ -*----------------------------------*\
| =========                 |                                                 |
| \\      /  F ield         | OpenFOAM: The Open Source CFD Toolbox           |
|  \\    /   O peration     | Version:  v2006                                 |
|   \\  /    A nd           | Website:  www.openfoam.com                      |
|    \\/     M anipulation  |                                                 |
\*---------------------------------------------------------------------------*/
FoamFile
{
    version     2.0;
    format      ascii;
    class       volVectorField;
    location    "2.4";
    object      U;
}
// * * * * * * * * * * * * * * * * * * * * * * * * * * * * * * * * * * * * * //

dimensions      [0 1 -1 0 0 0 0];


internalField   nonuniform List<vector> 
26400
(
(0.909057 -0.00477669 0)
(1.09185 0.0044458 0)
(0.913091 -0.00427752 0)
(1.09153 0.00386381 0)
(0.919446 -0.00385602 0)
(1.09213 0.0033335 0)
(0.925088 -0.00346862 0)
(1.09265 0.00286461 0)
(0.930048 -0.00312661 0)
(1.09314 0.00244181 0)
(0.934346 -0.00282884 0)
(1.09361 0.00206312 0)
(0.937952 -0.00256344 0)
(1.09411 0.00172878 0)
(0.94083 -0.00232263 0)
(1.0947 0.00143353 0)
(0.942918 -0.00210259 0)
(1.09547 0.00116977 0)
(0.944107 -0.00189856 0)
(1.09654 0.000930896 0)
(0.94423 -0.00170098 0)
(1.098 0.000711823 0)
(0.943048 -0.00148922 0)
(1.09992 0.000506187 0)
(0.940229 -0.00121088 0)
(1.10228 0.000293162 0)
(0.93526 -0.000673496 0)
(1.10458 2.51576e-05 0)
(0.926804 0.00111037 0)
(1.10573 0.000366502 0)
(0.915947 -0.0048172 0)
(1.08603 0.00444788 0)
(0.922496 -0.00434293 0)
(1.08566 0.00386227 0)
(0.930498 -0.0039328 0)
(1.0856 0.00333209 0)
(0.937498 -0.0035488 0)
(1.08508 0.00286648 0)
(0.943799 -0.00320811 0)
(1.08418 0.00244728 0)
(0.94958 -0.00291078 0)
(1.08288 0.00207263 0)
(0.954951 -0.00264506 0)
(1.08114 0.00174292 0)
(0.96004 -0.00240285 0)
(1.07891 0.00145324 0)
(0.964999 -0.00218001 0)
(1.07605 0.00119724 0)
(0.970011 -0.00197143 0)
(1.07233 0.00097056 0)
(0.975309 -0.00176647 0)
(1.06741 0.00077178 0)
(0.981182 -0.00153875 0)
(1.06079 0.000594262 0)
(0.987941 -0.00121698 0)
(1.05177 0.000395111 0)
(0.995774 -0.000549465 0)
(1.03909 0.000214013 0)
(1.00437 0.00201992 0)
(1.02009 0.0015149 0)
(0.928126 -0.00486362 0)
(1.07425 0.0044244 0)
(0.937577 -0.00440501 0)
(1.07358 0.0038356 0)
(0.947703 -0.00399726 0)
(1.07247 0.00330598 0)
(0.956453 -0.00360605 0)
(1.07041 0.00284054 0)
(0.96434 -0.00325494 0)
(1.06764 0.00241796 0)
(0.971651 -0.00294344 0)
(1.06421 0.00203579 0)
(0.978548 -0.00265826 0)
(1.06017 0.00169278 0)
(0.985154 -0.00238869 0)
(1.05555 0.00138149 0)
(0.991536 -0.00212678 0)
(1.05038 0.00109201 0)
(0.997687 -0.00186206 0)
(1.04471 0.000815168 0)
(1.0035 -0.0015777 0)
(1.03866 0.000546485 0)
(1.00875 -0.00124704 0)
(1.03239 0.000287745 0)
(1.01302 -0.000819729 0)
(1.02613 4.76868e-05 0)
(1.01565 -0.000132652 0)
(1.01991 5.70173e-05 0)
(1.01544 0.00216629 0)
(1.01418 0.0037618 0)
(0.943436 -0.00489671 0)
(1.05835 0.00434942 0)
(0.954385 -0.00443921 0)
(1.05721 0.00375939 0)
(0.965635 -0.00401887 0)
(1.05521 0.00322872 0)
(0.975142 -0.00360714 0)
(1.05209 0.00275877 0)
(0.983425 -0.00323345 0)
(1.04832 0.00232632 0)
(0.990751 -0.00289682 0)
(1.04411 0.00192968 0)
(0.997234 -0.00258353 0)
(1.0397 0.00156822 0)
(1.00292 -0.00228294 0)
(1.03528 0.00123584 0)
(1.00777 -0.00198797 0)
(1.03104 0.000925458 0)
(1.01172 -0.00169016 0)
(1.02713 0.000632131 0)
(1.01464 -0.00137538 0)
(1.02366 0.000358556 0)
(1.01643 -0.00102295 0)
(1.02065 0.000118625 0)
(1.01696 -0.000578595 0)
(1.01797 -4.58633e-05 0)
(1.01606 0.000155614 0)
(1.01519 0.000239973 0)
(1.01339 0.00254398 0)
(1.01233 0.00593933 0)
(0.95921 -0.00490855 0)
(1.0414 0.00423491 0)
(0.969569 -0.00444346 0)
(1.03993 0.00364439 0)
(0.980185 -0.00400399 0)
(1.03768 0.00311279 0)
(0.988829 -0.00356813 0)
(1.03458 0.00264021 0)
(0.995927 -0.00317143 0)
(1.03117 0.00220235 0)
(1.00172 -0.00281349 0)
(1.02779 0.00179935 0)
(1.00634 -0.00248105 0)
(1.02466 0.00143231 0)
(1.00989 -0.00216383 0)
(1.02194 0.00109698 0)
(1.01244 -0.00185505 0)
(1.01968 0.000788348 0)
(1.01407 -0.00154646 0)
(1.01786 0.000503591 0)
(1.01484 -0.00122419 0)
(1.01637 0.00024985 0)
(1.01483 -0.000869965 0)
(1.01501 4.62485e-05 0)
(1.01407 -0.000460766 0)
(1.01351 -5.7768e-06 0)
(1.01246 2.68194e-05 0)
(1.01144 0.00109523 0)
(1.0099 0.00164951 0)
(1.00916 0.00843239 0)
(0.973066 -0.00489719 0)
(1.02634 0.00410715 0)
(0.981141 -0.00442321 0)
(1.0249 0.00351718 0)
(0.989691 -0.00396717 0)
(1.02308 0.00298711 0)
(0.99632 -0.00351193 0)
(1.02081 0.00251763 0)
(1.0014 -0.00309884 0)
(1.01857 0.00208219 0)
(1.00518 -0.00272791 0)
(1.01659 0.00168171 0)
(1.00789 -0.0023854 0)
(1.01498 0.00131776 0)
(1.00971 -0.00205984 0)
(1.01374 0.000986296 0)
(1.01081 -0.00174321 0)
(1.0128 0.00068313 0)
(1.01131 -0.00142698 0)
(1.01205 0.00040795 0)
(1.01132 -0.00109952 0)
(1.01132 0.000174829 0)
(1.01087 -0.000744176 0)
(1.01045 9.1121e-06 0)
(1.00993 -0.000362164 0)
(1.0092 4.30203e-05 0)
(1.00838 0.000222985 0)
(1.00729 0.00105904 0)
(1.00622 0.0026049 0)
(1.0055 0.00619715 0)
(0.983649 -0.00486519 0)
(1.01489 0.00398768 0)
(0.988748 -0.00438588 0)
(1.01377 0.00339938 0)
(0.994734 -0.00391963 0)
(1.0127 0.00287226 0)
(0.999131 -0.00345141 0)
(1.01142 0.00240868 0)
(1.00229 -0.00302746 0)
(1.01029 0.00197783 0)
(1.00448 -0.00264762 0)
(1.0094 0.00158001 0)
(1.00594 -0.00229668 0)
(1.00874 0.00121611 0)
(1.00684 -0.00196095 0)
(1.00828 0.000881287 0)
(1.00732 -0.00163019 0)
(1.00791 0.000571434 0)
(1.00746 -0.00129473 0)
(1.00754 0.00028794 0)
(1.0073 -0.00094369 0)
(1.00705 4.8713e-05 0)
(1.0068 -0.00054772 0)
(1.00631 -0.000119214 0)
(1.00589 -0.000108748 0)
(1.00516 -0.000107233 0)
(1.0044 0.000768815 0)
(1.00344 0.000589008 0)
(1.0024 0.00409071 0)
(1.00197 0.00466506 0)
(0.990792 -0.00481741 0)
(1.00728 0.00388594 0)
(0.993177 -0.00433708 0)
(1.00657 0.00329932 0)
(0.996929 -0.00386624 0)
(1.00614 0.00277347 0)
(0.999544 -0.00338925 0)
(1.00558 0.00231405 0)
(1.00134 -0.00295692 0)
(1.00513 0.00188511 0)
(1.00254 -0.00256945 0)
(1.0048 0.00148673 0)
(1.00332 -0.00221091 0)
(1.00457 0.00112029 0)
(1.0038 -0.00186688 0)
(1.0044 0.000782178 0)
(1.00403 -0.00152728 0)
(1.00423 0.000471375 0)
(1.00405 -0.00118488 0)
(1.00397 0.000194818 0)
(1.00383 -0.000834768 0)
(1.00356 -2.3143e-05 0)
(1.00332 -0.000466551 0)
(1.00287 -0.000117046 0)
(1.00241 -8.78867e-05 0)
(1.00177 0.000138171 0)
(1.00097 0.000288204 0)
(1.00019 0.00185835 0)
(0.999225 0.00259663 0)
(0.998991 0.0102068 0)
(0.995134 -0.00475824 0)
(1.00276 0.00380023 0)
(0.995553 -0.00427936 0)
(1.00235 0.003214 0)
(0.997757 -0.00380712 0)
(1.00232 0.00268557 0)
(0.999209 -0.00332304 0)
(1.00213 0.00222637 0)
(1.00017 -0.00288246 0)
(1.00199 0.00179504 0)
(1.00082 -0.00248661 0)
(1.00187 0.00139201 0)
(1.00123 -0.00211938 0)
(1.00179 0.00101992 0)
(1.00148 -0.00176628 0)
(1.0017 0.000677107 0)
(1.00157 -0.00141812 0)
(1.00157 0.000366436 0)
(1.0015 -0.00107055 0)
(1.00134 0.000100155 0)
(1.00123 -0.000715276 0)
(1.00094 -9.92215e-05 0)
(1.00069 -0.000363296 0)
(1.00025 -0.000142764 0)
(0.999782 1.15685e-05 0)
(0.99912 0.000194582 0)
(0.998436 0.000404821 0)
(0.997599 0.00204117 0)
(0.997198 0.00232103 0)
(0.996672 0.0100178 0)
(0.997569 -0.00469035 0)
(1.00028 0.0037231 0)
(0.996789 -0.00421312 0)
(1.00005 0.00313573 0)
(0.998078 -0.00374083 0)
(1.00021 0.00260082 0)
(0.998863 -0.00324995 0)
(1.00018 0.00213832 0)
(0.999359 -0.00280018 0)
(1.00013 0.00170085 0)
(0.999682 -0.00239408 0)
(1.00008 0.001289 0)
(0.999877 -0.00201499 0)
(1.00003 0.000906118 0)
(0.99997 -0.00164766 0)
(0.999951 0.000551618 0)
(0.999959 -0.00128303 0)
(0.999817 0.000231437 0)
(0.999814 -0.000918167 0)
(0.999572 -3.98788e-05 0)
(0.999489 -0.000541358 0)
(0.999146 -0.000238539 0)
(0.998915 -0.000151404 0)
(0.998436 -0.000294062 0)
(0.997989 0.000324132 0)
(0.997302 -0.0001075 0)
(0.996674 0.00138582 0)
(0.995841 0.000760737 0)
(0.995629 0.00391684 0)
(0.99528 0.00263743 0)
(0.998863 -0.004615 0)
(0.998981 0.00364684 0)
(0.997438 -0.00413797 0)
(0.998851 0.00305758 0)
(0.99824 -0.00366623 0)
(0.999086 0.00251372 0)
(0.998668 -0.00316897 0)
(0.99911 0.00204696 0)
(0.998905 -0.0027106 0)
(0.999097 0.00160394 0)
(0.999039 -0.00229658 0)
(0.99906 0.0011868 0)
(0.999095 -0.00191135 0)
(0.999005 0.000801608 0)
(0.999083 -0.00154135 0)
(0.998919 0.000451527 0)
(0.99899 -0.00118078 0)
(0.998769 0.000148549 0)
(0.998783 -0.000830202 0)
(0.998506 -8.94349e-05 0)
(0.998411 -0.000490032 0)
(0.99806 -0.000222263 0)
(0.997802 -0.000151079 0)
(0.997332 -0.000190158 0)
(0.996853 0.0002962 0)
(0.99622 0.000137042 0)
(0.995521 0.00136978 0)
(0.994834 0.00101094 0)
(0.99431 0.00402907 0)
(0.994743 0.00165404 0)
(0.999529 -0.00453266 0)
(0.998324 0.0035657 0)
(0.997783 -0.00405298 0)
(0.998238 0.00297427 0)
(0.998341 -0.00358147 0)
(0.998511 0.002419 0)
(0.998584 -0.00307682 0)
(0.998556 0.00194574 0)
(0.99868 -0.0026073 0)
(0.998553 0.00149375 0)
(0.998709 -0.00218115 0)
(0.998518 0.00106597 0)
(0.998683 -0.00178314 0)
(0.998457 0.000670399 0)
(0.998606 -0.00140035 0)
(0.998358 0.000312829 0)
(0.998462 -0.00102884 0)
(0.998192 8.98154e-06 0)
(0.998216 -0.000667456 0)
(0.997908 -0.000222408 0)
(0.997817 -0.000328811 0)
(0.997441 -0.000326799 0)
(0.99719 4.08313e-06 0)
(0.996696 -0.000252913 0)
(0.996239 0.000438406 0)
(0.995588 0.000219022 0)
(0.994936 0.00128397 0)
(0.994288 0.00165228 0)
(0.993795 0.00395477 0)
(0.994715 0.00611498 0)
(0.999866 -0.00444364 0)
(0.997999 0.00347665 0)
(0.997968 -0.00395782 0)
(0.997937 0.00288391 0)
(0.998405 -0.00348702 0)
(0.99823 0.0023167 0)
(0.998554 -0.00297624 0)
(0.998286 0.00183852 0)
(0.998577 -0.00249791 0)
(0.99829 0.00138133 0)
(0.998549 -0.00206498 0)
(0.998256 0.0009505 0)
(0.998478 -0.00166434 0)
(0.998192 0.000558001 0)
(0.998364 -0.00128609 0)
(0.998086 0.000214762 0)
(0.998191 -0.000930406 0)
(0.99791 -5.9578e-05 0)
(0.997921 -0.00060206 0)
(0.997616 -0.000238002 0)
(0.997505 -0.000310252 0)
(0.997137 -0.000261649 0)
(0.996869 -2.96686e-05 0)
(0.996387 -5.09514e-05 0)
(0.995927 0.000273012 0)
(0.995287 0.000634668 0)
(0.994684 0.000999469 0)
(0.994106 0.00244496 0)
(0.993875 0.0036501 0)
(0.994723 0.0103027 0)
(1.00004 -0.00434776 0)
(0.997841 0.00337735 0)
(0.998071 -0.003851 0)
(0.997794 0.00278377 0)
(0.998449 -0.00338037 0)
(0.9981 0.00220274 0)
(0.998553 -0.00286267 0)
(0.998165 0.00171834 0)
(0.998538 -0.00237367 0)
(0.998173 0.00125412 0)
(0.99848 -0.00193155 0)
(0.99814 0.000817688 0)
(0.998386 -0.0015248 0)
(0.998076 0.000424764 0)
(0.998253 -0.00114631 0)
(0.997966 9.06945e-05 0)
(0.998066 -0.00079801 0)
(0.997784 -0.00016426 0)
(0.997788 -0.000494272 0)
(0.997481 -0.000302321 0)
(0.997369 -0.000227491 0)
(0.996995 -0.0002792 0)
(0.99674 4.83544e-05 0)
(0.996232 -2.45916e-05 0)
(0.995823 0.000472228 0)
(0.995155 0.000640309 0)
(0.994653 0.0014986 0)
(0.994099 0.00237347 0)
(0.9944 0.00399058 0)
(0.995037 0.00644592 0)
(1.00013 -0.00424502 0)
(0.997762 0.00326675 0)
(0.998139 -0.00373205 0)
(0.997723 0.00267341 0)
(0.998488 -0.00326197 0)
(0.998038 0.00207803 0)
(0.99857 -0.00273868 0)
(0.998109 0.00158887 0)
(0.998536 -0.00224112 0)
(0.998121 0.00112102 0)
(0.998462 -0.0017943 0)
(0.998093 0.000684823 0)
(0.998354 -0.0013886 0)
(0.998031 0.000300873 0)
(0.998211 -0.0010203 0)
(0.997923 -1.15463e-05 0)
(0.998014 -0.000691655 0)
(0.997741 -0.000232043 0)
(0.997729 -0.000420531 0)
(0.997439 -0.000319063 0)
(0.997307 -0.000187151 0)
(0.996956 -0.000249716 0)
(0.996679 8.91869e-05 0)
(0.996216 -2.48185e-05 0)
(0.995776 0.00071211 0)
(0.995188 0.000579927 0)
(0.994674 0.0020724 0)
(0.994217 0.00227273 0)
(0.994222 0.00460734 0)
(0.995485 0.0028761 0)
(1.00019 -0.00413496 0)
(0.997716 0.00314342 0)
(0.998192 -0.0035995 0)
(0.99768 0.00255085 0)
(0.998528 -0.0031298 0)
(0.998 0.00193966 0)
(0.998602 -0.00260119 0)
(0.998072 0.00144565 0)
(0.99856 -0.00209529 0)
(0.998086 0.000975007 0)
(0.998481 -0.00164487 0)
(0.998057 0.000540625 0)
(0.998369 -0.00124307 0)
(0.997994 0.00017 0)
(0.998224 -0.000893051 0)
(0.997884 -0.00011297 0)
(0.998028 -0.000600599 0)
(0.997699 -0.000284092 0)
(0.997747 -0.000374149 0)
(0.997393 -0.000306305 0)
(0.997332 -0.000187326 0)
(0.996911 -0.00016116 0)
(0.996712 5.25317e-05 0)
(0.996192 0.000208788 0)
(0.995836 0.000551382 0)
(0.995222 0.00104107 0)
(0.99482 0.00181841 0)
(0.994362 0.00307522 0)
(0.994406 0.00481944 0)
(0.996141 0.00718502 0)
(1.00023 -0.00401807 0)
(0.997694 0.00300781 0)
(0.99823 -0.00345415 0)
(0.997658 0.00241825 0)
(0.998557 -0.00298678 0)
(0.997982 0.00179282 0)
(0.998627 -0.00245688 0)
(0.998057 0.00129868 0)
(0.998579 -0.00194848 0)
(0.998072 0.000832999 0)
(0.998495 -0.0015034 0)
(0.998045 0.000411466 0)
(0.998381 -0.00111926 0)
(0.997984 7.08656e-05 0)
(0.998234 -0.000807863 0)
(0.997876 -0.000162755 0)
(0.998038 -0.000575517 0)
(0.997692 -0.000263192 0)
(0.99776 -0.000410725 0)
(0.997387 -0.000209296 0)
(0.997352 -0.00027602 0)
(0.996911 1.33026e-05 0)
(0.996749 -0.000106294 0)
(0.996205 0.000573594 0)
(0.99591 0.000303485 0)
(0.995293 0.00164172 0)
(0.994996 0.00145644 0)
(0.994619 0.00392147 0)
(0.99492 0.00491021 0)
(0.996351 0.0117312 0)
(1.00025 -0.00389246 0)
(0.997694 0.00285622 0)
(0.998253 -0.00329204 0)
(0.997659 0.00227007 0)
(0.998571 -0.00282668 0)
(0.997988 0.00162924 0)
(0.998638 -0.00229594 0)
(0.998066 0.00113547 0)
(0.998586 -0.00178545 0)
(0.998083 0.00067622 0)
(0.998499 -0.00134625 0)
(0.998058 0.000268923 0)
(0.998384 -0.000980797 0)
(0.997997 -4.13861e-05 0)
(0.998239 -0.00069553 0)
(0.997888 -0.000233742 0)
(0.998048 -0.000503202 0)
(0.997701 -0.000288238 0)
(0.997777 -0.000360716 0)
(0.997396 -0.000216087 0)
(0.997379 -0.000201125 0)
(0.99692 -1.65771e-05 0)
(0.996803 9.02205e-05 0)
(0.996234 0.000422179 0)
(0.996007 0.000745995 0)
(0.995378 0.00143612 0)
(0.995198 0.00224244 0)
(0.99492 0.00351848 0)
(0.995795 0.00497397 0)
(0.996769 0.0069811 0)
(1.00026 -0.00375949 0)
(0.997709 0.00269099 0)
(0.998269 -0.00311643 0)
(0.997674 0.00210966 0)
(0.998579 -0.00265493 0)
(0.99801 0.00145351 0)
(0.998644 -0.00212648 0)
(0.998093 0.000962657 0)
(0.998587 -0.00161859 0)
(0.998114 0.000514941 0)
(0.998495 -0.00119323 0)
(0.998092 0.000131566 0)
(0.998378 -0.000878931 0)
(0.998034 -0.000136506 0)
(0.998232 -0.000639928 0)
(0.997925 -0.000273488 0)
(0.998042 -0.00048552 0)
(0.997741 -0.000282179 0)
(0.997774 -0.000352255 0)
(0.997443 -0.000196822 0)
(0.997378 -0.000158185 0)
(0.996987 -3.67951e-05 0)
(0.996808 0.000258677 0)
(0.996336 0.000288051 0)
(0.99606 0.00114095 0)
(0.995566 0.00128438 0)
(0.995339 0.00296372 0)
(0.995126 0.0033115 0)
(0.995543 0.00513714 0)
(0.997296 0.00276682 0)
(1.00027 -0.00362406 0)
(0.997726 0.00251991 0)
(0.998287 -0.00293508 0)
(0.997686 0.00195315 0)
(0.998595 -0.00248636 0)
(0.998023 0.00129345 0)
(0.998664 -0.00197414 0)
(0.998105 0.000822876 0)
(0.998608 -0.00148662 0)
(0.998123 0.000407962 0)
(0.998519 -0.00109397 0)
(0.998096 7.49483e-05 0)
(0.998408 -0.000795642 0)
(0.998035 -0.000152722 0)
(0.998269 -0.00061735 0)
(0.997922 -0.000235288 0)
(0.998088 -0.00050998 0)
(0.997736 -0.000196073 0)
(0.997826 -0.00040559 0)
(0.99744 -6.01476e-05 0)
(0.997437 -0.000225293 0)
(0.996997 0.000170565 0)
(0.996883 0.000105997 0)
(0.99639 0.000655827 0)
(0.996193 0.000914555 0)
(0.995707 0.00182132 0)
(0.995577 0.00266795 0)
(0.995348 0.00426532 0)
(0.995722 0.00579467 0)
(0.998098 0.00770326 0)
(1.00025 -0.00346232 0)
(0.997767 0.00230412 0)
(0.998286 -0.00270756 0)
(0.997718 0.0017373 0)
(0.99859 -0.00225622 0)
(0.998057 0.00105337 0)
(0.998664 -0.0017423 0)
(0.998139 0.000581679 0)
(0.998609 -0.00125571 0)
(0.998156 0.0001775 0)
(0.998523 -0.000888587 0)
(0.998129 -0.000126313 0)
(0.998413 -0.000630361 0)
(0.998063 -0.000300022 0)
(0.998281 -0.000504075 0)
(0.997948 -0.000319216 0)
(0.998105 -0.000458434 0)
(0.997763 -0.000215568 0)
(0.99785 -0.000431361 0)
(0.997474 1.18098e-05 0)
(0.997471 -0.000354051 0)
(0.997039 0.000440432 0)
(0.996942 -0.000116932 0)
(0.996468 0.00122329 0)
(0.996311 0.00056737 0)
(0.995875 0.00256209 0)
(0.995843 0.00215115 0)
(0.995738 0.00531204 0)
(0.996293 0.00625539 0)
(0.997997 0.0129902 0)
(1.00021 -0.00333317 0)
(0.997843 0.00213732 0)
(0.998261 -0.00253191 0)
(0.997787 0.00160463 0)
(0.998559 -0.00211594 0)
(0.998128 0.000939412 0)
(0.998638 -0.00165091 0)
(0.998211 0.000521869 0)
(0.998586 -0.00122241 0)
(0.998224 0.000192567 0)
(0.998503 -0.000938964 0)
(0.99819 -3.40406e-05 0)
(0.998402 -0.000797925 0)
(0.998118 -0.000110362 0)
(0.99828 -0.000733107 0)
(0.997996 -8.36027e-05 0)
(0.998114 -0.000689104 0)
(0.997805 -4.28722e-07 0)
(0.997873 -0.000599137 0)
(0.997513 0.000138109 0)
(0.997518 -0.000386199 0)
(0.997089 0.000435785 0)
(0.99703 0.000101745 0)
(0.996552 0.00106254 0)
(0.996452 0.00105051 0)
(0.996038 0.00237754 0)
(0.996134 0.00300851 0)
(0.996216 0.00476859 0)
(0.997374 0.00578241 0)
(0.998284 0.00708017 0)
(1.00016 -0.00313449 0)
(0.997934 0.00185972 0)
(0.998233 -0.00224382 0)
(0.99787 0.00132785 0)
(0.998527 -0.00182053 0)
(0.998215 0.000636898 0)
(0.998613 -0.00135359 0)
(0.9983 0.000220202 0)
(0.998562 -0.000914239 0)
(0.99831 -9.38203e-05 0)
(0.998482 -0.000607381 0)
(0.998273 -0.000327195 0)
(0.998385 -0.00042202 0)
(0.998199 -0.000447942 0)
(0.998264 -0.000279244 0)
(0.99808 -0.000519233 0)
(0.998098 -0.000103012 0)
(0.997898 -0.000563372 0)
(0.997854 0.000169325 0)
(0.997624 -0.000575867 0)
(0.997503 0.000560465 0)
(0.997231 -0.000474462 0)
(0.997035 0.00120984 0)
(0.99674 -4.54744e-05 0)
(0.996544 0.00233489 0)
(0.996351 0.00124776 0)
(0.996321 0.00447843 0)
(0.996408 0.00355129 0)
(0.996783 0.00650221 0)
(0.998791 0.00252969 0)
(1.00013 -0.00300182 0)
(0.998009 0.00168024 0)
(0.998231 -0.00206027 0)
(0.997929 0.00119372 0)
(0.998525 -0.00168403 0)
(0.998272 0.000532268 0)
(0.998625 -0.0012901 0)
(0.998353 0.000182742 0)
(0.998583 -0.000953858 0)
(0.998355 -1.79291e-05 0)
(0.99851 -0.000793639 0)
(0.998309 -0.000100461 0)
(0.998422 -0.000770269 0)
(0.998231 -7.05937e-05 0)
(0.998308 -0.000795446 0)
(0.99811 3.61275e-05 0)
(0.998148 -0.000826759 0)
(0.997932 0.000230127 0)
(0.997911 -0.000826877 0)
(0.997659 0.000603627 0)
(0.997573 -0.000748567 0)
(0.997285 0.00114203 0)
(0.99714 -0.000454132 0)
(0.996847 0.00206966 0)
(0.996729 0.000397191 0)
(0.99656 0.00353574 0)
(0.996644 0.00200902 0)
(0.996764 0.0062279 0)
(0.997186 0.00608622 0)
(0.999012 0.0136021 0)
(1.00009 -0.00279896 0)
(0.998108 0.00140088 0)
(0.998214 -0.00177317 0)
(0.998012 0.000939897 0)
(0.998502 -0.00141448 0)
(0.998358 0.00028532 0)
(0.998613 -0.00106195 0)
(0.998437 -3.17158e-05 0)
(0.998579 -0.000771795 0)
(0.99843 -0.000181705 0)
(0.998514 -0.00066186 0)
(0.998376 -0.000225807 0)
(0.998435 -0.000633664 0)
(0.99829 -0.000220419 0)
(0.99833 -0.000602809 0)
(0.998163 -0.000210729 0)
(0.998183 -0.0005273 0)
(0.997978 -0.000170212 0)
(0.997974 -0.000390734 0)
(0.997707 -2.73917e-06 0)
(0.997662 -5.17486e-05 0)
(0.997344 0.000430202 0)
(0.997281 0.000512252 0)
(0.996954 0.0012132 0)
(0.996919 0.00157764 0)
(0.996733 0.00266859 0)
(0.997003 0.0034501 0)
(0.997403 0.00482244 0)
(0.998664 0.00580672 0)
(0.999225 0.00720439 0)
(1.00006 -0.00264865 0)
(0.998203 0.00118263 0)
(0.998216 -0.00155797 0)
(0.998092 0.000772596 0)
(0.998494 -0.00123934 0)
(0.998443 0.000150766 0)
(0.998614 -0.000922545 0)
(0.998526 -0.000118903 0)
(0.998582 -0.000667081 0)
(0.998515 -0.000229818 0)
(0.998518 -0.000554879 0)
(0.998463 -0.000289567 0)
(0.998435 -0.000467188 0)
(0.998383 -0.00034764 0)
(0.998322 -0.000290985 0)
(0.998268 -0.000449272 0)
(0.998167 -2.60195e-05 0)
(0.998097 -0.000572775 0)
(0.997951 0.000378023 0)
(0.997856 -0.000702114 0)
(0.997663 0.000955524 0)
(0.997523 -0.000647491 0)
(0.997306 0.00180131 0)
(0.997187 -0.000199456 0)
(0.997057 0.00310657 0)
(0.997091 0.00122666 0)
(0.99717 0.0053702 0)
(0.99743 0.00335823 0)
(0.997796 0.00648471 0)
(0.999748 0.000924983 0)
(1.00009 -0.00241335 0)
(0.998236 0.000863936 0)
(0.998287 -0.0012527 0)
(0.998099 0.000496795 0)
(0.99856 -0.000977338 0)
(0.998451 -9.65246e-05 0)
(0.998695 -0.000750531 0)
(0.998529 -0.000274501 0)
(0.998671 -0.000599728 0)
(0.998511 -0.000258994 0)
(0.99861 -0.000638342 0)
(0.998457 -0.000169743 0)
(0.99853 -0.000760819 0)
(0.998384 -1.81575e-05 0)
(0.998417 -0.000923037 0)
(0.998274 0.000242535 0)
(0.998263 -0.00105048 0)
(0.998118 0.000576233 0)
(0.998046 -0.00108586 0)
(0.997889 0.000985737 0)
(0.997755 -0.000958975 0)
(0.997594 0.00150753 0)
(0.997441 -0.000467349 0)
(0.997327 0.00233557 0)
(0.99729 0.000522046 0)
(0.997362 0.00374229 0)
(0.99757 0.00249731 0)
(0.997809 0.00689363 0)
(0.998098 0.00734753 0)
(0.999875 0.0135419 0)
(1.00009 -0.00231539 0)
(0.998312 0.000729613 0)
(0.998324 -0.00112311 0)
(0.998146 0.000445551 0)
(0.998587 -0.00091712 0)
(0.998495 -0.000115638 0)
(0.998738 -0.000796306 0)
(0.998571 -0.000231139 0)
(0.998725 -0.000689568 0)
(0.998542 -0.000182626 0)
(0.998671 -0.000724152 0)
(0.998477 -0.000100146 0)
(0.9986 -0.000816681 0)
(0.998388 3.61456e-05 0)
(0.998506 -0.000948056 0)
(0.998271 0.000293552 0)
(0.99837 -0.0010667 0)
(0.998109 0.000641867 0)
(0.998176 -0.0011312 0)
(0.997893 0.00112055 0)
(0.997919 -0.00101253 0)
(0.997631 0.00179718 0)
(0.997634 -0.000569781 0)
(0.997414 0.00273507 0)
(0.997531 0.000331788 0)
(0.997582 0.00397589 0)
(0.998119 0.00192456 0)
(0.998762 0.00660527 0)
(0.999783 0.0066899 0)
(0.999303 0.0134933 0)
(1.00004 -0.00203871 0)
(0.998453 0.000345056 0)
(0.998318 -0.000725723 0)
(0.998255 0.000108593 0)
(0.998566 -0.000490304 0)
(0.998603 -0.000449059 0)
(0.998734 -0.000381976 0)
(0.998681 -0.000605615 0)
(0.998727 -0.000215348 0)
(0.998648 -0.000675503 0)
(0.998672 -8.96872e-05 0)
(0.998584 -0.000791253 0)
(0.998603 6.45268e-05 0)
(0.998501 -0.000919597 0)
(0.998513 0.000292312 0)
(0.998384 -0.00105175 0)
(0.998382 0.000562718 0)
(0.998226 -0.00110548 0)
(0.998201 0.000897709 0)
(0.998019 -0.00100614 0)
(0.997966 0.00133188 0)
(0.997779 -0.000654166 0)
(0.997732 0.00198321 0)
(0.997613 0.000115396 0)
(0.997685 0.00305224 0)
(0.997832 0.00122575 0)
(0.998374 0.00410489 0)
(0.999187 0.00167144 0)
(1.00025 0.00349102 0)
(0.999795 0.000112323 0)
(1.00002 -0.00190628 0)
(0.998583 0.000163667 0)
(0.998345 -0.000701839 0)
(0.998347 9.94926e-05 0)
(0.99858 -0.000659232 0)
(0.998688 -0.000304671 0)
(0.998764 -0.000666002 0)
(0.998769 -0.000358361 0)
(0.99876 -0.000558927 0)
(0.998736 -0.000366549 0)
(0.998701 -0.000466772 0)
(0.998674 -0.000439564 0)
(0.998628 -0.000344897 0)
(0.998597 -0.000542494 0)
(0.998532 -0.000172015 0)
(0.998491 -0.000667418 0)
(0.998407 9.5419e-05 0)
(0.998346 -0.000698234 0)
(0.998239 0.000453772 0)
(0.998155 -0.000556329 0)
(0.998035 0.000949511 0)
(0.997948 -0.000110584 0)
(0.997853 0.00169206 0)
(0.997841 0.000739146 0)
(0.997856 0.00273929 0)
(0.998026 0.00184436 0)
(0.998283 0.00345874 0)
(0.998728 0.0015506 0)
(0.999327 0.00188076 0)
(1.00153 0.00016671 0)
(1.00003 -0.0017509 0)
(0.998662 -4.893e-05 0)
(0.998426 -0.00050946 0)
(0.998381 -3.03579e-05 0)
(0.998648 -0.000269623 0)
(0.998724 -0.000533415 0)
(0.998847 -0.00035229 0)
(0.998812 -0.000613703 0)
(0.998845 -0.00027486 0)
(0.998778 -0.000608108 0)
(0.998784 -0.000219141 0)
(0.998718 -0.000600012 0)
(0.998709 -0.000177997 0)
(0.998645 -0.000565684 0)
(0.998613 -0.00013123 0)
(0.998548 -0.000496278 0)
(0.998492 -6.56638e-05 0)
(0.998415 -0.000355658 0)
(0.998339 0.000103756 0)
(0.998245 -6.02902e-05 0)
(0.998166 0.00048631 0)
(0.998074 0.000485295 0)
(0.998032 0.00117348 0)
(0.998003 0.00130891 0)
(0.99807 0.00205495 0)
(0.998163 0.00238764 0)
(0.998386 0.00320123 0)
(0.998863 0.00385391 0)
(0.999992 0.0049021 0)
(1.00376 0.00611277 0)
(1.00003 -0.00144911 0)
(0.998783 -0.000376424 0)
(0.998492 -0.00030825 0)
(0.998476 -0.000162569 0)
(0.998681 -0.000279205 0)
(0.998789 -0.000429727 0)
(0.998901 -0.000513444 0)
(0.998886 -0.000393177 0)
(0.998905 -0.000608695 0)
(0.998852 -0.000226436 0)
(0.998846 -0.000726133 0)
(0.99879 -2.11001e-05 0)
(0.998776 -0.000882143 0)
(0.998716 0.000207226 0)
(0.998685 -0.0010294 0)
(0.998615 0.000488448 0)
(0.998572 -0.00109213 0)
(0.998491 0.000790814 0)
(0.998435 -0.000963511 0)
(0.99835 0.00119587 0)
(0.998289 -0.00054918 0)
(0.998225 0.00178483 0)
(0.998184 0.000162524 0)
(0.998189 0.00249481 0)
(0.998276 0.00100559 0)
(0.998483 0.00350617 0)
(0.99886 0.00250066 0)
(0.999407 0.00636853 0)
(1.0002 0.00741985 0)
(1.00285 0.0124453 0)
(1.00001 -0.00157104 0)
(0.998903 -0.000262589 0)
(0.998559 -0.000579753 0)
(0.998534 0.000127139 0)
(0.998741 -0.000471218 0)
(0.998851 -0.000215811 0)
(0.998971 -0.000662042 0)
(0.998948 -0.000298388 0)
(0.998988 -0.000672888 0)
(0.998907 -0.000254922 0)
(0.998938 -0.000665598 0)
(0.998836 -0.000202277 0)
(0.998875 -0.000672299 0)
(0.998757 -0.000160223 0)
(0.998797 -0.000664705 0)
(0.998666 -8.7093e-05 0)
(0.998691 -0.000544865 0)
(0.998564 0.000105949 0)
(0.998569 -0.00023529 0)
(0.998454 0.000490122 0)
(0.998451 0.000304304 0)
(0.998361 0.0011042 0)
(0.998365 0.00105789 0)
(0.998343 0.00193599 0)
(0.998512 0.00202978 0)
(0.998722 0.00293717 0)
(0.99946 0.00309378 0)
(1.00063 0.00383641 0)
(1.00226 0.00394671 0)
(1.00291 0.00509819 0)
(0.999973 -0.000941659 0)
(0.999068 -0.000942696 0)
(0.998617 -8.33104e-06 0)
(0.998688 -0.000468852 0)
(0.99874 0.00025134 0)
(0.998969 -0.000881231 0)
(0.998987 0.000105346 0)
(0.999081 -0.00110901 0)
(0.999007 0.000215173 0)
(0.999045 -0.0011929 0)
(0.998954 0.000392351 0)
(0.998978 -0.00127126 0)
(0.998887 0.000566957 0)
(0.998901 -0.00134007 0)
(0.998806 0.000750441 0)
(0.998816 -0.00135985 0)
(0.998721 0.000950721 0)
(0.998728 -0.00123178 0)
(0.998634 0.00121545 0)
(0.998642 -0.000882793 0)
(0.998557 0.00168942 0)
(0.998579 -0.000230415 0)
(0.998532 0.0024429 0)
(0.998622 0.000811904 0)
(0.998704 0.00351426 0)
(0.998968 0.00184044 0)
(0.999276 0.00413298 0)
(0.999803 0.00132077 0)
(1.00073 0.0021078 0)
(1.00408 -0.000456088 0)
(1.00001 -0.00147343 0)
(0.999131 -0.000246162 0)
(0.998757 -0.000853558 0)
(0.998706 0.000481194 0)
(0.998851 -0.000879473 0)
(0.998986 0.000353007 0)
(0.999095 -0.00114974 0)
(0.999114 0.000234278 0)
(0.999124 -0.00119248 0)
(0.999086 0.000245068 0)
(0.999071 -0.0011293 0)
(0.999021 0.000293541 0)
(0.999004 -0.00103935 0)
(0.998951 0.000363431 0)
(0.998929 -0.000931943 0)
(0.998872 0.000460974 0)
(0.998848 -0.000771208 0)
(0.99879 0.00062629 0)
(0.998775 -0.000479852 0)
(0.99874 0.000966275 0)
(0.998738 3.66041e-05 0)
(0.998737 0.00157788 0)
(0.998777 0.000878658 0)
(0.998836 0.00254182 0)
(0.998948 0.00202295 0)
(0.999103 0.00362478 0)
(0.999393 0.0030248 0)
(1.0001 0.00442323 0)
(1.00182 0.00446993 0)
(1.00623 0.00768819 0)
(1.00002 -0.00055918 0)
(0.999233 -0.0013303 0)
(0.998881 -1.43997e-06 0)
(0.998794 -0.000574295 0)
(0.99892 0.000451973 0)
(0.999047 -0.000847756 0)
(0.999166 0.000282508 0)
(0.999186 -0.00106216 0)
(0.999202 0.000228823 0)
(0.999166 -0.00111358 0)
(0.999153 0.000281227 0)
(0.999105 -0.00105605 0)
(0.999089 0.00036153 0)
(0.999034 -0.000957366 0)
(0.999014 0.000436222 0)
(0.998963 -0.000833374 0)
(0.998944 0.000543115 0)
(0.99891 -0.000617364 0)
(0.998901 0.000823235 0)
(0.998887 -0.00020856 0)
(0.998903 0.00130512 0)
(0.99893 0.000474761 0)
(0.998997 0.00205585 0)
(0.999095 0.00143307 0)
(0.99924 0.00314187 0)
(0.999436 0.00293782 0)
(0.999752 0.00504272 0)
(1.00049 0.00527424 0)
(1.00224 0.0068085 0)
(1.00672 0.00522288 0)
(1.00001 -0.00114443 0)
(0.999341 -0.00022012 0)
(0.999007 -0.00114075 0)
(0.998908 0.000576038 0)
(0.998991 -0.00101606 0)
(0.999122 0.000731314 0)
(0.999236 -0.00144052 0)
(0.999264 0.000627864 0)
(0.999282 -0.00168173 0)
(0.999253 0.000685724 0)
(0.999241 -0.0016711 0)
(0.999195 0.000803779 0)
(0.99918 -0.00154901 0)
(0.999127 0.000902773 0)
(0.999109 -0.00134446 0)
(0.999058 0.00101749 0)
(0.999048 -0.00107625 0)
(0.999021 0.00118622 0)
(0.999025 -0.000719374 0)
(0.999032 0.00146992 0)
(0.999072 -0.000184687 0)
(0.999123 0.00206514 0)
(0.999215 0.000652639 0)
(0.999359 0.00294236 0)
(0.999607 0.00172794 0)
(0.999967 0.00428365 0)
(1.00043 0.00400233 0)
(1.00098 0.00821652 0)
(1.00189 0.00962442 0)
(1.00518 0.0137444 0)
(0.999944 -0.000625037 0)
(0.99943 -0.0010361 0)
(0.999037 -0.000381182 0)
(0.998993 -0.000331006 0)
(0.999023 -9.99375e-06 0)
(0.999173 -0.000285321 0)
(0.99925 -0.000267434 0)
(0.999323 -0.000537498 0)
(0.999318 -0.000471565 0)
(0.99933 -0.000549258 0)
(0.999289 -0.000427637 0)
(0.999282 -0.000447961 0)
(0.999231 -0.000314183 0)
(0.999224 -0.000330943 0)
(0.999167 -0.000144086 0)
(0.999167 -0.000164944 0)
(0.999118 0.000116479 0)
(0.999139 9.81744e-05 0)
(0.999113 0.000455931 0)
(0.999171 0.000496101 0)
(0.999217 0.000949185 0)
(0.999319 0.00112135 0)
(0.999426 0.00176854 0)
(0.999589 0.00219333 0)
(0.999871 0.00297337 0)
(1.00043 0.00330322 0)
(1.00149 0.00383531 0)
(1.00299 0.00390302 0)
(1.0048 0.00422359 0)
(1.0045 0.00365225 0)
(0.99986 -0.000529577 0)
(0.999689 -0.000893409 0)
(0.999104 -0.000511027 0)
(0.99926 -0.000268246 0)
(0.999024 -0.000113669 0)
(0.999385 -0.000237079 0)
(0.999238 -0.000299074 0)
(0.99952 -0.000450501 0)
(0.999327 -0.000411373 0)
(0.999534 -0.000505339 0)
(0.999314 -0.000320608 0)
(0.99948 -0.000453069 0)
(0.999266 -0.000166171 0)
(0.999416 -0.000345866 0)
(0.999217 2.0064e-05 0)
(0.999363 -0.000178867 0)
(0.99919 0.000243155 0)
(0.999346 9.11798e-05 0)
(0.999217 0.000551522 0)
(0.999405 0.000552085 0)
(0.999352 0.00102415 0)
(0.999609 0.00109107 0)
(0.999673 0.00161154 0)
(1 0.00177042 0)
(1.00012 0.00239151 0)
(1.0005 0.00275588 0)
(1.00074 0.00375156 0)
(1.00124 0.00437945 0)
(1.00168 0.0054534 0)
(1.00473 0.00596198 0)
(0.999929 -0.000884681 0)
(0.999591 -0.000379454 0)
(0.99924 -0.000932292 0)
(0.999197 0.000131142 0)
(0.999161 -0.000594801 0)
(0.999302 0.000249195 0)
(0.999355 -0.000784572 0)
(0.999461 3.44786e-06 0)
(0.999447 -0.000964511 0)
(0.9995 -5.8646e-05 0)
(0.999436 -0.000898272 0)
(0.999467 3.28956e-05 0)
(0.999391 -0.000733934 0)
(0.999419 0.000194301 0)
(0.999343 -0.000513242 0)
(0.999375 0.000417664 0)
(0.999324 -0.000225384 0)