/*--------------------------------*- C++ -*----------------------------------*\
| =========                 |                                                 |
| \\      /  F ield         | OpenFOAM: The Open Source CFD Toolbox           |
|  \\    /   O peration     | Version:  v2006                                 |
|   \\  /    A nd           | Website:  www.openfoam.com                      |
|    \\/     M anipulation  |                                                 |
\*---------------------------------------------------------------------------*/
FoamFile
{
    version     2.0;
    format      ascii;
    class       volScalarField;
    location    "0.9";
    object      p;
}
// * * * * * * * * * * * * * * * * * * * * * * * * * * * * * * * * * * * * * //

dimensions      [0 2 -2 0 0 0 0];


internalField   nonuniform List<scalar> 
26400
(
2.2042e-08
0.00220005
0.00210123
0.00238707
0.0017757
0.00210901
0.00179078
0.00208074
0.00179663
0.00209577
0.00183898
0.00216041
0.00191417
0.0021995
0.00198988
0.00228338
0.00215589
0.00246365
0.00237423
0.00272232
0.00274609
0.00324112
0.00340894
0.00404624
0.00440274
0.00531494
0.00610102
0.00766661
0.00940839
0.01204
3.45699e-07
0.00220025
0.00210161
0.002387
0.0017764
0.00210894
0.0017916
0.00208074
0.00179752
0.00209571
0.00184002
0.00216024
0.00191545
0.00219907
0.00199135
0.00228261
0.00215778
0.00246247
0.00237659
0.00272002
0.00274907
0.00323589
0.00341332
0.00403373
0.00441088
0.00527907
0.00612105
0.00752455
0.00939781
0.0113533
1.3326e-06
0.00220076
0.00210237
0.00238701
0.00177772
0.00210871
0.00179315
0.00208062
0.00179926
0.00209543
0.00184206
0.00215983
0.0019179
0.00219806
0.00199419
0.00228108
0.0021612
0.0024604
0.00238052
0.00271657
0.00275354
0.0032298
0.00341863
0.00402323
0.00441719
0.00526016
0.00611635
0.00744547
0.0092826
0.0106947
3.45129e-06
0.00220185
0.00210347
0.00238737
0.00177941
0.00210859
0.00179509
0.00208059
0.00180149
0.00209516
0.00184464
0.00215941
0.00192093
0.00219682
0.00199761
0.00227916
0.00216515
0.00245774
0.00238494
0.00271205
0.00275864
0.00322212
0.00342447
0.00400936
0.00442259
0.00522912
0.00611691
0.00732378
0.00905768
0.010142
7.17025e-06
0.00220342
0.00210495
0.00238792
0.00178143
0.00210847
0.00179725
0.00208051
0.00180408
0.00209474
0.00184759
0.00215876
0.00192429
0.0021951
0.00200134
0.00227659
0.00216937
0.00245417
0.00238957
0.00270628
0.0027639
0.00321271
0.0034299
0.00399378
0.00442525
0.005202
0.00608499
0.00723337
0.00870967
0.00969356
1.26601e-05
0.00220513
0.00210677
0.00238835
0.00178373
0.00210808
0.00179952
0.00208011
0.0018069
0.0020939
0.00185077
0.00215758
0.00192788
0.00219267
0.00200538
0.00227317
0.00217391
0.00244953
0.00239442
0.00269926
0.00276939
0.00320258
0.00343471
0.00397919
0.00442385
0.00518369
0.00601706
0.00715771
0.00832833
0.00914237
1.97649e-05
0.00220668
0.00210889
0.00238843
0.00178624
0.00210723
0.00180183
0.00207921
0.00180991
0.00209253
0.00185421
0.00215576
0.00193178
0.00218947
0.00200986
0.00226886
0.00217903
0.00244373
0.00239982
0.00269071
0.00277553
0.00319038
0.00343984
0.00396188
0.00442176
0.00514505
0.00599156
0.00698748
0.00816967
0.00873032
2.81562e-05
0.00220796
0.00211128
0.0023881
0.00178895
0.00210587
0.00180422
0.00207779
0.00181317
0.00209063
0.001858
0.00215334
0.00193612
0.00218556
0.00201492
0.0022637
0.00218483
0.00243685
0.00240583
0.00268079
0.00278188
0.00317717
0.00344425
0.00394359
0.00441628
0.00510343
0.00593805
0.00682419
0.00784882
0.00828685
3.75031e-05
0.00220898
0.00211394
0.00238738
0.00179194
0.00210401
0.0018068
0.00207586
0.00181679
0.00208821
0.0018623
0.00215032
0.00194104
0.00218093
0.00202067
0.00225771
0.00219133
0.00242898
0.00241231
0.00267082
0.00278784
0.00316421
0.00344596
0.00392789
0.00439787
0.00510727
0.00581466
0.00672524
0.00720839
0.00779759
4.75676e-05
0.0022098
0.00211691
0.00238634
0.00179528
0.00210171
0.0018097
0.00207344
0.00182089
0.00208525
0.00186722
0.00214666
0.00194667
0.00217545
0.00202724
0.00225074
0.00219866
0.00241984
0.00241951
0.0026583
0.00279425
0.00314911
0.00344789
0.00390753
0.00438805
0.00505512
0.00574356
0.00659545
0.00689105
0.00725275
5.82247e-05
0.00221048
0.00212022
0.00238505
0.00179909
0.00209897
0.00181301
0.00207052
0.00182554
0.00208172
0.00187284
0.0021423
0.00195307
0.00216909
0.00203458
0.00224287
0.00220658
0.00240981
0.00242687
0.00264516
0.00280009
0.0031334
0.00344888
0.00388321
0.00437509
0.00498861
0.00571298
0.00643048
0.00697601
0.00663221
6.94417e-05
0.00221101
0.00212391
0.00238352
0.00180344
0.00209578
0.00181682
0.00206702
0.00183082
0.00207752
0.00187923
0.00213714
0.0019603
0.0021618
0.00204272
0.00223399
0.00221511
0.00239887
0.00243416
0.00263177
0.00280445
0.00311782
0.0034467
0.00385885
0.00435383
0.00493144
0.0056449
0.0062578
0.00681845
0.00589322
8.12476e-05
0.00221134
0.00212801
0.00238176
0.00180842
0.0020921
0.0018212
0.00206287
0.00183679
0.0020726
0.00188645
0.00213115
0.00196833
0.00215361
0.00205156
0.00222427
0.00222401
0.0023871
0.00244088
0.0026184
0.00280662
0.0031033
0.0034391
0.00383701
0.00432081
0.00488628
0.00553509
0.00607663
0.0063593
0.00547823
9.37135e-05
0.00221137
0.00213254
0.00237974
0.00181412
0.00208787
0.00182623
0.00205801
0.00184349
0.00206691
0.00189453
0.00212436
0.00197709
0.00214458
0.00206086
0.00221416
0.00223277
0.00237589
0.00244608
0.00260586
0.00280581
0.00309008
0.00342535
0.00381704
0.00427509
0.00483617
0.0054136
0.0058883
0.00567511
0.00489236
0.000106945
0.00221096
0.00213755
0.00237743
0.00182063
0.00208302
0.00183197
0.00205235
0.00185099
0.00206035
0.00190347
0.00211673
0.0019866
0.00213471
0.00207044
0.00220362
0.00224149
0.00236467
0.00244991
0.00259364
0.00280349
0.00307504
0.00341285
0.00378429
0.00423811
0.00474679
0.00529898
0.00571932
0.00575373
0.00449068
0.000121075
0.00220992
0.00214307
0.00237476
0.00182807
0.00207751
0.0018385
0.00204578
0.00185932
0.00205294
0.00191321
0.00210829
0.00199675
0.00212426
0.00207992
0.00219287
0.00224948
0.00235413
0.00245167
0.00258243
0.0027982
0.00306026
0.00339646
0.00374271
0.00419609
0.0046458
0.00516977
0.0055077
0.00558469
0.00375738
0.000136261
0.00220806
0.00214912
0.00237169
0.00183654
0.00207127
0.00184585
0.00203828
0.0018684
0.00204479
0.00192363
0.0020992
0.00200704
0.00211408
0.00208875
0.00218368
0.00225481
0.00234613
0.0024491
0.00257458
0.00278601
0.00305021
0.00336667
0.00371925
0.00412184
0.0045633
0.00499347
0.00524269
0.00506549
0.00351079
0.000152703
0.00220512
0.00215574
0.00236816
0.00184611
0.00206425
0.00185402
0.00202987
0.00187815
0.00203591
0.00193469
0.00208976
0.00201703
0.00210439
0.00209661
0.00217623
0.00225771
0.00234
0.00244358
0.00256794
0.00277139
0.00303889
0.00333243
0.00368515
0.00403907
0.00447057
0.00481104
0.00493557
0.0042059
0.00300581
0.000170623
0.0022008
0.00216295
0.00236414
0.0018569
0.00205642
0.00186302
0.0020205
0.00188857
0.00202624
0.00194614
0.00208036
0.0020265
0.00209449
0.00210305
0.00216947
0.00225935
0.00233337
0.00243836
0.00255667
0.00276116
0.00301614
0.00330765
0.00362245
0.00396672
0.00432695
0.00464731
0.00477938
0.00445118
0.00266162
0.000190208
0.00219484
0.00217071
0.00235963
0.00186893
0.00204789
0.00187267
0.00201043
0.00189928
0.00201659
0.00195714
0.00207277
0.0020353
0.00208745
0.00210755
0.00216431
0.00225893
0.00232789
0.00243115
0.00254441
0.00274973
0.00298948
0.00328182
0.00355127
0.00388179
0.00416772
0.00446043
0.00454235
0.00432013
0.00183293
0.000211925
0.00218676
0.0021791
0.00235446
0.00188237
0.00203846
0.00188317
0.00199928
0.00191034
0.00200617
0.001968
0.00206148
0.00204349
0.00207955
0.0021108
0.00216
0.00225611
0.00232447
0.00241866
0.00253613
0.00272628
0.00297148
0.00323245
0.00349773
0.00377104
0.00402383
0.00420315
0.0041796
0.00375099
0.00191894
0.000235771
0.00217633
0.00218792
0.0023489
0.00189703
0.00202863
0.00189382
0.00198845
0.00192074
0.00199824
0.00197713
0.0020592
0.00204641
0.00207881
0.00210679
0.00216438
0.00224421
0.00233049
0.00239775
0.00253935
0.00268953
0.00295729
0.00315976
0.00344144
0.0036414
0.00388534
0.00393202
0.00372689
0.00268055
0.00156424
0.000262426
0.00216298
0.00219728
0.0023427
0.00191312
0.00201831
0.00190465
0.00197693
0.00193087
0.00198994
0.0019862
0.00205225
0.00205133
0.0020727
0.00211067
0.00215549
0.00224971
0.00231276
0.00240064
0.00250732
0.00269023
0.00289912
0.00313263
0.00332887
0.00352823
0.00365158
0.00372338
0.0036196
0.00328142
0.00129847
0.000292126
0.00214631
0.002207
0.00233599
0.0019305
0.00200765
0.00191562
0.00196439
0.00193957
0.00198138
0.00199325
0.00204712
0.00205463
0.00206723
0.00211254
0.00214879
0.00224882
0.00230155
0.00238939
0.00248618
0.00266688
0.00286322
0.00308154
0.00323818
0.00339442
0.00345823
0.00345559
0.00327915
0.00292176
0.00103194
0.000324967
0.00212615
0.00221662
0.00232926
0.00194866
0.00199807
0.00192597
0.0019611
0.00194406
0.00198196
0.00199328
0.00205418
0.00204847
0.00207602
0.00209849
0.00216249
0.00222429
0.00231829
0.00234773
0.00249336
0.00259658
0.00284677
0.00296803
0.0031697
0.00322929
0.00332141
0.00313028
0.00267801
0.00145761
0.000746093
0.000361563
0.00210196
0.00222626
0.00232218
0.00196768
0.00198847
0.00193634
0.00195086
0.00194885
0.00197744
0.00199695
0.0020486
0.00205407
0.00206547
0.00211194
0.00214241
0.00224496
0.00228493
0.00236644
0.0024428
0.00260186
0.00276175
0.00293343
0.00302294
0.00308283
0.00305252
0.00295647
0.00274654
0.00236603
0.000488038
0.00040269
0.00207318
0.00223557
0.00231484
0.00198768
0.00197731
0.00194519
0.00194315
0.00195182
0.00197687
0.00199752
0.0020486
0.00205313
0.00205877
0.00211017
0.00213283
0.00224072
0.00226196
0.00235448
0.00239721
0.00258715
0.00269371
0.00288428
0.00288947
0.00292722
0.00278918
0.00263671
0.002376
0.00211471
0.000303396
0.000447279
0.00204116
0.00224336
0.00230909
0.00200742
0.00197301
0.00194748
0.00194202
0.00194588
0.00198753
0.00198697
0.00206783
0.00203547
0.00208771
0.00207526
0.00217076
0.00219029
0.00230097
0.00228295
0.0024249
0.0024905
0.00267939
0.0027533
0.00281735
0.00273826
0.00258767
0.00214912
0.00144423
0.00046052
0.000814286
0.000496494
0.00200411
0.00225065
0.00230238
0.00202931
0.00196688
0.00195612
0.00193562
0.00194895
0.0019838
0.00199137
0.0020611
0.00204035
0.0020732
0.00207775
0.00215548
0.00218848
0.00227909
0.00226465
0.00238715
0.00245547
0.00262042
0.00266887
0.00270468
0.00259805
0.0024214
0.00191784
0.00111015
3.99256e-05
0.000464364
0.000551857
0.00196004
0.0022558
0.00229303
0.00204766
0.00196447
0.00196183
0.00193028
0.00195241
0.0019783
0.00200083
0.00205075
0.00205594
0.00205595
0.00209963
0.0021288
0.00220521
0.00223894
0.00226876
0.00232707
0.00243016
0.00252957
0.00258773
0.00254565
0.00246685
0.00229654
0.00205631
0.00165265
0.00106094
-0.00109934
0.000610092
0.00192355
0.00225219
0.00230359
0.002064
0.00196718
0.00196311
0.00192742
0.00195229
0.00197567
0.00200445
0.00204577
0.00206155
0.00204648
0.00210373
0.00211431
0.00220374
0.00221151
0.00224915
0.00227546
0.00237856
0.00244173
0.00248232
0.00242153
0.00232526
0.00219949
0.00202888
0.00156126
0.000463365
-0.00330458
0.000676247
0.00186826
0.00224974
0.00226957
0.0020939
0.00197104
0.0019734
0.00192706
0.00195106
0.00197642
0.00200069
0.00204832
0.00205511
0.00204929
0.00208955
0.00212476
0.00218175
0.00221164
0.00221084
0.00224314
0.00231199
0.00236905
0.00238472
0.00230607
0.00216928
0.00195163
0.0016068
0.00108802
0.000292475
-0.00234049
0.00074045
0.00183698
0.00223289
0.00230325
0.00208936
0.00198864
0.00195804
0.00194352
0.00193116
0.00199768
0.00197929
0.00207315
0.00202958
0.00207249
0.00205283
0.00214262
0.00213878
0.00220075
0.00215159
0.0021924
0.00222636
0.0022872
0.00227287
0.00220103
0.00200621
0.00176431
0.00108571
-7.83919e-05
-0.00173127
-0.00248981
0.000818168
0.0017853
0.00221652
0.00225707
0.00213094
0.00198786
0.00198742
0.00193066
0.001948
0.00197757
0.0019999
0.00204997
0.00205577
0.00204756
0.00208158
0.00211552
0.00215058
0.00215857
0.00212832
0.00211938
0.00215868
0.00217824
0.00213974
0.00202299
0.00185174
0.00162111
0.00131737
0.000870862
-7.0803e-05
-0.00334325
0.000887529
0.00175814
0.00218414
0.00228231
0.00213236
0.00200533
0.00198651
0.00193502
0.00194221
0.00197587
0.00199815
0.0020451
0.0020544
0.00203803
0.00206846
0.00210292
0.00212596
0.00213002
0.00208749
0.00206318
0.00207913
0.00206287
0.00198982
0.00184847
0.001701
0.00153089
0.00129718
0.00061412
-0.00107401
-0.00547745
0.000965163
0.00172375
0.00214751
0.00226012
0.00214865
0.00201839
0.00200184
0.001941
0.00194576
0.0019741
0.00199922
0.0020415
0.00205378
0.00203359
0.00206218
0.00210097
0.00211372
0.00209859
0.00204203
0.00198952
0.0019857
0.00194686
0.00184153
0.00166453
0.00147726
0.00127592
0.0010081
0.000303553
-0.00142569
-0.00588081
0.00105295
0.00170015
0.00210517
0.00223509
0.00216274
0.00203067
0.00201698
0.00194758
0.00194333
0.00197026
0.0019952
0.00203578
0.00204992
0.00202762
0.00205029
0.002085
0.00208884
0.00206066
0.00199113
0.00191771
0.00189122
0.00182956
0.00170123
0.00147035
0.00118046
0.000819002
0.000410245
-0.000112626
-0.00102445
-0.00430856
0.00109306
0.00171565
0.00205615
0.00225558
0.00212964
0.00208188
0.00200978
0.00198705
0.00192227
0.00198825
0.00197707
0.00204261
0.00203467
0.002024
0.00203008
0.00206633
0.00205783
0.00201215
0.00193373
0.00184911
0.00178706
0.00170845
0.0015334
0.00130737
0.000954626
0.000430192
-0.000606892
-0.00206233
-0.00395231
-0.00370362
0.00121652
0.00166473
0.00202115
0.00219166
0.00217041
0.00206723
0.00205256
0.00197869
0.00193918
0.00196762
0.00198753
0.00202761
0.00203746
0.00201181
0.00201906
0.00204806
0.00203388
0.00196264
0.00186852
0.00176689
0.00168739
0.00155817
0.0013328
0.00102712
0.000748035
0.000488211
0.000207229
-0.000142942
-0.000666179
-0.00360373
0.0012331
0.00170905
0.00197987
0.00221183
0.00212899
0.00211511
0.00204101
0.00201421
0.00192888
0.00197675
0.00197866
0.00202289
0.00202712
0.001999
0.00199628
0.00201443
0.0019994
0.00191222
0.00179619
0.00169606
0.00159641
0.00149198
0.00128906
0.00101467
0.000567216
-0.000159982
-0.00136472
-0.00295455
-0.00488223
-0.00430602
0.00135223
0.0016596
0.00195724
0.00214424
0.00215432
0.00210384
0.00209334
0.00201894
0.00194819
0.00196174
0.00198168
0.00200628
0.00201588
0.00198491
0.00197343
0.00198717
0.00195214
0.00184588
0.00172504
0.00161443
0.00152135
0.00139647
0.00117767
0.000851499
0.000488935
0.000168639
-0.000106635
-0.000515896
-0.00175445
-0.00583368
0.00141466
0.00166133
0.00193682
0.00211934
0.00215634
0.00210502
0.00211222
0.00202709
0.00195572
0.00195732
0.00198314
0.00199712
0.00199845
0.00196367
0.00194151
0.00195759
0.00191295
0.00179057
0.0016616
0.00153766
0.001442
0.00129581
0.00107959
0.000780922
0.000469763
0.000105126
-0.000440814
-0.00154502
-0.00378674
-0.00884564
0.00143734
0.0016992
0.00191812
0.00209681
0.00213552
0.00211639
0.00212639
0.00205743
0.00196559
0.0019664
0.00198234
0.00198559
0.00197568
0.00193784
0.00190941
0.00190694
0.00186103
0.0017337
0.00159112
0.00146612
0.00135782
0.00119982
0.000959304
0.000637607
0.000280807
-0.000143235
-0.000780351
-0.00196353
-0.00430404
-0.00936104
0.00157229
0.00165039
0.00189857
0.00205994
0.00212575
0.00210435
0.00213602
0.00207195
0.00198037
0.00197038
0.0019809
0.00197162
0.00194594
0.00190881
0.00187243
0.00186756
0.00182439
0.00168317
0.00153032
0.00139545
0.00128478
0.00110518
0.000822621
0.000399892
-8.99533e-05
-0.000603606
-0.00111935
-0.00185839
-0.00341456
-0.00809265
0.00150648
0.00179027
0.00186928
0.00208236
0.00206514
0.00213518
0.00210767
0.00212054
0.0019748
0.00199101
0.00196677
0.00195786
0.00190839
0.00186545
0.00182738
0.00181001
0.00177605
0.00163646
0.00146751
0.00134121
0.00120363
0.00103984
0.000720705
0.00027134
-0.000494157
-0.00158868
-0.00306673
-0.00487603
-0.00695657
-0.00606333
0.00166919
0.00171758
0.00187111
0.00202675
0.00207789
0.00209389
0.00214552
0.00211976
0.00202191
0.00198612
0.00197873
0.00193418
0.00187686
0.00182276
0.00177949
0.00174915
0.00169665
0.0015577
0.00139035
0.00125427
0.00113628
0.000951124
0.000647059
0.000230277
-0.000226061
-0.000677894
-0.00120508
-0.0021199
-0.00420263
-0.009482
0.00166528
0.00174012
0.00188935
0.00201503
0.00207234
0.0020794
0.00214664
0.00212809
0.00203323
0.00198481
0.00196997
0.00191923
0.00183927
0.00178742
0.00173378
0.00168876
0.00162626
0.00148176
0.00132084
0.00117886
0.00107476
0.000901627
0.000634979
0.000252413
-0.000202928
-0.00085689
-0.00186903
-0.00363274
-0.00670186
-0.0125959
0.00169229
0.00181755
0.00189214
0.00200249
0.00204361
0.00206309
0.00213596
0.00214197
0.00205203
0.00198996
0.00197623
0.00189998
0.00179822
0.001724
0.00166776
0.00162533
0.00154822
0.00141542
0.0012477
0.00111699
0.00100822
0.000853901
0.000579717
0.000189523
-0.000322494
-0.000997233
-0.00201398
-0.00371772
-0.00683814
-0.0128985
0.00176777
0.00180454
0.00188509
0.00199006
0.00202858
0.00204928
0.00212553
0.00215027
0.00206472
0.00199976
0.00196707
0.00187744
0.0017508
0.0016585
0.00160779
0.0015603
0.00148089
0.00134342
0.00118103
0.0010482
0.000940074
0.00078118
0.000502538
9.35408e-05
-0.000435523
-0.0011362
-0.00220116
-0.00403658
-0.00739594
-0.0137735
0.00176863
0.00184605
0.00191428
0.00199215
0.00202231
0.00203464
0.00211221
0.00214692
0.00207006
0.00199406
0.00195573
0.00185728
0.00171052
0.00160344
0.00154721
0.00149856
0.00141068
0.00126814
0.00110618
0.000974641
0.000861921
0.000695132
0.000405978
-1.72721e-05
-0.00056897
-0.00131244
-0.00246367
-0.00443544
-0.00795936
-0.0144885
0.0018182
0.00187617
0.00192161
0.00198865
0.00201213
0.00201987
0.00209271
0.00213319
0.00206167
0.00198287
0.00194132
0.00183709
0.00167216
0.00154575
0.00148419
0.00143542
0.00134002
0.00118846
0.00102536
0.00089461
0.000775848
0.000597839
0.000295404
-0.00014545
-0.00072807
-0.00152569
-0.00275432
-0.00481847
-0.00843444
-0.0150086
0.00184667
0.0018927
0.00193457
0.00199353
0.00201243
0.00201092
0.002074
0.0021156
0.00204824
0.00196702
0.00192372
0.00181656
0.00163656
0.00148976
0.0014201
0.00137111
0.00126925
0.00110716
0.000939812
0.000807977
0.000683298
0.000491938
0.000171596
-0.000291968
-0.000906712
-0.0017499
-0.00303485
-0.0051594
-0.00881811
-0.0154096
0.00187714
0.00191676
0.00195113
0.00200143
0.00201493
0.00200454
0.00205394
0.00209245
0.00202731
0.00194063
0.00189362
0.00179049
0.0016019
0.00143607
0.00135482
0.00130389
0.00119731
0.00102458
0.000849233
0.000714227
0.000583511
0.000377393
3.55726e-05
-0.000452776
-0.00109565
-0.001972
-0.00329504
-0.00545439
-0.0091416
-0.0157546
0.00190946
0.00193954
0.00196421
0.00200562
0.00201684
0.00200051
0.00203409
0.00206492
0.00200051
0.00190891
0.00185746
0.00175843
0.0015673
0.00138466
0.00128884
0.00123364
0.00112364
0.000940442
0.000754783
0.000614336
0.000477349
0.000256734
-0.000106985
-0.000619912
-0.00128659
-0.0021865
-0.00353157
-0.00570953
-0.00940928
-0.0160298
0.0019391
0.00196083
0.00197817
0.00201091
0.00201864
0.00199891
0.00201646
0.00203542
0.00197075
0.00187507
0.00181654
0.00171925
0.00152973
0.00133492
0.00122317
0.00116038
0.00104632
0.000853916
0.000656848
0.00050869
0.000365104
0.000131933
-0.000251985
-0.000787783
-0.00147474
-0.0023909
-0.0037484
-0.00593751
-0.00964823
-0.0162813
0.00196717
0.00198186
0.00199302
0.00201724
0.0020191
0.00199627
0.00200021
0.00200431
0.00193727
0.00183839
0.00177092
0.00167271
0.00148673
0.00128509
0.00115817
0.00108458
0.000964623
0.000763696
0.000555565
0.000398579
0.000248245
4.50284e-06
-0.000396721
-0.000952893
-0.00165764
-0.00258567
-0.00395129
-0.00614776
-0.00986577
-0.0165083
0.0019934
0.00200258
0.0020085
0.00202444
0.00201824
0.00199132
0.00198422
0.00197294
0.00190057
0.00179947
0.00172359
0.00162071
0.0014376
0.0012333
0.0010938
0.00100731
0.000878954
0.000669289
0.000451018
0.000285488
0.000128442
-0.000124251
-0.000539709
-0.00111335
-0.00183319
-0.00277093
-0.00414259
-0.00634477
-0.0100686
-0.0167136
0.00201596
0.0020229
0.00202461
0.00203212
0.002017
0.00198437
0.00196783
0.00194167
0.00186138
0.00175818
0.00167501
0.00156483
0.00138208
0.0011779
0.0010296
0.00093005
0.000790331
0.000570956
0.00034309
0.000169838
6.88249e-06
-0.000252977
-0.000679946
-0.00126814
-0.00200099
-0.00294686
-0.00432282
-0.00652885
-0.0102601
-0.0169169
0.00203792
0.00204229
0.00203922
0.00203873
0.00201515
0.00197602
0.00195046
0.00191019
0.00182083
0.00171487
0.00162511
0.00150585
0.00132054
0.00111743
0.000964539
0.000853861
0.000700988
0.00046977
0.00023201
5.19251e-05
-0.000115534
-0.000380578
-0.000816648
-0.00141698
-0.00216131
-0.0031142
-0.0044925
-0.00669921
-0.0104341
-0.0171
0.00206023
0.00206018
0.00205197
0.00204404
0.00201195
0.00196664
0.00193225
0.0018784
0.00177907
0.00166988
0.00157434
0.00144474
0.00125386
0.00105098
0.000896946
0.000778819
0.000613075
0.000367579
0.000118555
-6.82867e-05
-0.000238678
-0.000506726
-0.000949131
-0.00155944
-0.00231384
-0.00327311
-0.00465241
-0.00685605
-0.0105841
-0.0172408
0.00207982
0.00207659
0.00206437
0.00204852
0.00200721
0.00195585
0.00191355
0.00184612
0.00173557
0.00162309
0.0015237
0.00138361
0.00118355
0.000978345
0.000824753
0.000703321
0.00052764
0.000267157
4.65177e-06
-0.00018997
-0.000362608
-0.000631423
-0.00107734
-0.001695
-0.00245797
-0.00342293
-0.00480294
-0.00700376
-0.0107299
-0.0173916
0.00209701
0.00209157
0.00207597
0.00205251
0.00200101
0.0019431
0.00189413
0.00181341
0.00169037
0.00157409
0.00147288
0.00132406
0.00111192
0.000900751
0.000746672
0.000625233
0.000443926
0.00017055
-0.000106628
-0.000310855
-0.000486755
-0.000755317
-0.00120223
-0.00182425
-0.00259367
-0.00356375
-0.00494548
-0.00714528
-0.0108705
-0.0175328
0.0021135
0.00210495
0.00208562
0.00205585
0.0019935
0.00192765
0.00187329
0.00178128
0.00164405
0.00152196
0.00142077
0.00126593
0.00104171
0.000820628
0.00066336
0.000542671
0.000359593
7.74789e-05
-0.000212875
-0.000427951
-0.000609006
-0.000878189
-0.00132487
-0.00194864
-0.00272184
-0.00369578
-0.00507952
-0.00727938
-0.0110035
-0.0176643
0.00212803
0.00211657
0.00209331
0.00205804
0.00198558
0.00191007
0.00185065
0.00174994
0.00159817
0.00146689
0.00136504
0.00120791
0.000973967
0.000741236
0.000577365
0.000455638
0.0002727
-1.41897e-05
-0.000314183
-0.00053916
-0.000726502
-0.000998063
-0.00144514
-0.00206937
-0.00284393
-0.00381947
-0.00520408
-0.007404
-0.0111282
-0.0177889
0.00214055
0.00212665
0.00209899
0.00205863
0.00197747
0.0018912
0.00182532
0.00171863
0.00155417
0.0014103
0.00130505
0.00114776
0.000907584
0.000664399
0.000491528
0.000366286
0.000182929
-0.000106267
-0.000412547
-0.000644821
-0.000837596
-0.00111224
-0.00156103
-0.0021862
-0.00296103
-0.00393597
-0.00531912
-0.00751749
-0.011242
-0.0179077
0.00215181
0.0021351
0.00210258
0.00205713
0.00196855
0.0018719
0.00179796
0.00168576
0.00151157
0.00135508
0.00124268
0.0010836
0.000840495
0.000589783
0.000408239
0.000277429
9.19454e-05
-0.000199227
-0.00050939
-0.000746111
-0.000942172
-0.00121909
-0.00167023
-0.00229774
-0.00307353
-0.00404699
-0.00542643
-0.00762027
-0.0113409
-0.0180052
0.00216122
0.00214164
0.00210443
0.0020535
0.00195841
0.00185307
0.00176982
0.00165078
0.00146917
0.00130203
0.00118055
0.00101702
0.000770691
0.000515533
0.000327909
0.000191509
2.43661e-06
-0.000291952
-0.000605498
-0.00084475
-0.00104174
-0.00131903
-0.00177171
-0.00240219
-0.00318033
-0.00415314
-0.00552819
-0.00771579
-0.0114317
-0.0180968
0.00216833
0.00214631
0.00210496
0.00204844
0.00194689
0.00183389
0.00174196
0.00161464
0.00142549
0.00125004
0.00112073
0.000950686
0.000699028
0.000439827
0.000248766
0.000109187
-8.33237e-05
-0.000382275
-0.000700446
-0.000941982
-0.00113812
-0.00141331
-0.00186543
-0.00249815
-0.00327983
-0.00425432
-0.00562703
-0.00780908
-0.0115191
-0.0181817
0.00217291
0.002149
0.00210413
0.00204236
0.00193385
0.00181376
0.00171446
0.00157873
0.0013812
0.00119805
0.00106261
0.000887142
0.000628579
0.000363181
0.000169201
2.90591e-05
-0.000164435
-0.000467782
-0.000792345
-0.0010376
-0.00123267
-0.00150386
-0.00195301
-0.00258629
-0.00337155
-0.00434954
-0.00572262
-0.00790169
-0.0116089
-0.0182727
0.00217548
0.00214966
0.00210153
0.00203521
0.00191981
0.00179234
0.00168687
0.001544
0.00133762
0.00114615
0.00100533
0.000826493
0.000562031
0.000288553
8.92917e-05
-5.08294e-05
-0.000242235
-0.000547329
-0.000878559
-0.00112982
-0.00132552
-0.0015925
-0.00203679
-0.00266835
-0.00345578
-0.00443768
-0.00581313
-0.00799124
-0.0116953
-0.0183562
0.00217668
0.00214853
0.0020967
0.00202655
0.00190519
0.00177006
0.00165866
0.00151039
0.00129595
0.00109551
0.000948717
0.000767456
0.000499652
0.000218712
1.1636e-05
-0.000130728
-0.000318809
-0.000622003
-0.00095771
-0.00121622
-0.00141519
-0.00167943
-0.00211819
-0.00274597
-0.00353347
-0.00451832
-0.00589673
-0.00807529
-0.0117767
-0.018434
0.00217596
0.00214587
0.00209046
0.00201657
0.00189031
0.0017477
0.0016298
0.0014773
0.00125671
0.00104731
0.000893494
0.000709637
0.000440105
0.000154323
-6.06908e-05
-0.000208571
-0.000395049
-0.000694084
-0.00103055
-0.00129509
-0.00149921
-0.00176315
-0.00219725
-0.00282017
-0.00360575
-0.00459183
-0.00597256
-0.00815201
-0.0118518
-0.018507
0.00217371
0.00214194
0.00208305
0.0020054
0.0018751
0.00172599
0.00160109
0.00144426
0.00121953
0.00100251
0.000840768
0.00065339
0.000382712
9.42163e-05
-0.000126561
-0.000281309
-0.000469525
-0.00076466
-0.00109871
-0.00136631
-0.00157576
-0.00184174
-0.00227307
-0.0028912
-0.00367337
-0.0046588
-0.00604069
-0.00822121
-0.0119208
-0.0185753
0.00217012
0.0021369
0.0020749
0.00199341
0.00185959
0.00170524
0.0015735
0.00141167
0.00118379
0.000961354
0.000791809
0.000599578
0.000327659
3.75975e-05
-0.000186657
-0.000347176
-0.000539582
-0.000833088
-0.00116345
-0.00143095
-0.00164419
-0.00191345
-0.00234418
-0.00295856
-0.00373671
-0.00472008
-0.00610199
-0.00828346
-0.0119838
-0.0186386
0.00216549
0.00213105
0.00206642
0.00198119
0.00184403
0.00168556
0.00154782
0.00138054
0.0011494
0.000923373
0.000747438
0.000549438
0.000275561
-1.5536e-05
-0.000241852
-0.000406099
-0.000603043
-0.000897443
-0.00122488
-0.00149027
-0.00170491
-0.00197724
-0.00240901
-0.00302133
-0.00379593
-0.00477654
-0.00615751
-0.00833939
-0.0120405
-0.0186962
0.00216028
0.00212472
0.00205791
0.00196929
0.00182885
0.00166707
0.00152446
0.00135182
0.00111697
0.000888267
0.000707812
0.00050416
0.000227359
-6.46315e-05
-0.000292261
-0.000458636
-0.000659028
-0.000955723
-0.00128196
-0.0015449
-0.00175893
-0.00203304
-0.00246649
-0.00307838
-0.00385065
-0.00482862
-0.00620802
-0.00838961
-0.0120912
-0.0187479
0.00215492
0.00211835
0.00204978
0.00195829
0.00181469
0.00165007
0.00150365
0.00132628
0.00108756
0.000856361
0.000672902
0.000464611
0.000184278
-0.00010884
-0.000337331
-0.000505003
-0.00070751
-0.00100655
-0.00133304
-0.0015943
-0.00180688
-0.00208131
-0.00251611
-0.00312854
-0.00389982
-0.00487594
-0.00625385
-0.00843482
-0.0121365
-0.0187938
0.00214981
0.00211242
0.00204246
0.0019487
0.00180225
0.00163502
0.00148569
0.0013045
0.00106216
0.000828542
0.000643007
0.000431408
0.000147655
-0.000146893
-0.000375862
-0.000544315
-0.00074807
-0.0010489
-0.00137625
-0.00163671
-0.0018479
-0.00212181
-0.00255734
-0.00317057
-0.00394178
-0.00491691
-0.00629373
-0.0084743
-0.0121766
-0.0188349
0.00214556
0.00210745
0.00203633
0.0019408
0.00179193
0.00162247
0.00147102
0.001287
0.00104161
0.000805836
0.000618906
0.000405329
0.000118886
-0.000177228
-0.000406423
-0.000575132
-0.000779519
-0.00108141
-0.00140967
-0.00166994
-0.00188014
-0.00215321
-0.00258877
-0.00320256
-0.00397405
-0.00494885
-0.00632504
-0.0085053
-0.0122078
-0.0188668
0.00214266
0.00210394
0.00203173
0.00193469
0.00178366
0.00161182
0.00145804
0.00127136
0.00102298
0.000784582
0.000595768
0.000380554
9.21007e-05
-0.000205825
-0.000435892
-0.000605091
-0.000810049
-0.00111266
-0.0014418
-0.00170264
-0.00191282
-0.00218544
-0.0026206
-0.00323423
-0.0040055
-0.00497971
-0.00635494
-0.00853436
-0.0122371
-0.0188994
0.014071
0.0137704
0.0122808
0.0101097
0.0073152
0.00402543
0.000403286
-0.00318781
-0.00602554
-0.00746632
-0.00753052
-0.00677282
-0.00576626
-0.00483599
-0.00410882
-0.00360324
-0.00328512
-0.00310331
-0.00300983
-0.00296723
-0.00294938
-0.00293954
-0.00292829
-0.00291129
-0.00288769
-0.00285866
-0.00282626
-0.00279267
-0.0027595
-0.00272783
-0.00269818
-0.00267077
-0.00264566
-0.00262286
-0.00260234
-0.00258409
-0.00256798
-0.00255388
-0.00254159
-0.00253095
-0.00252178
-0.00251407
-0.00250774
-0.00250278
-0.00249905
-0.00249645
-0.0024948
-0.00249399
-0.00249393
-0.00249462
-0.002496
-0.0024981
-0.00250088
-0.00250429
-0.00250831
-0.0025129
-0.00251806
-0.00252378
-0.00253009
-0.00253698
-0.00254438
-0.00255223
-0.00256049
-0.00256923
-0.00257847
-0.00258822
-0.00259833
-0.00260878
-0.00261952
-0.00263062
-0.00264202
-0.00265376
-0.00266579
-0.00267815
-0.00269075
-0.00270363
-0.00271674
-0.00273014
-0.00274377
-0.00275765
-0.00277178
-0.00278618
-0.00280082
-0.00281572
-0.00283087
-0.00284629
-0.00286196
-0.00287789
-0.00289406
-0.00291047
-0.00292712
-0.00294399
-0.00296108
-0.00297841
-0.00299592
-0.00301366
-0.00303157
-0.00304968
-0.00306794
-0.0030864
-0.00310499
-0.00312376
-0.00314263
-0.00316166
-0.00318078
-0.0032
-0.00321932
-0.00323872
-0.0032582
-0.00327777
-0.0032974
-0.0033171
-0.00333686
-0.00335669
-0.00337659
-0.00339659
-0.00341667
-0.00343686
-0.00345714
-0.00347757
-0.00349813
-0.00351889
-0.0035398
-0.00356094
-0.00358225
-0.00360381
-0.00362556
-0.00364756
-0.00366977
-0.00369223
-0.0037149
-0.00373778
-0.00376087
-0.00378415
-0.00380764
-0.00383132
-0.0038552
-0.00387922
-0.00390339
-0.00392764
-0.00395199
-0.00397639
-0.00400086
-0.00402537
-0.00404993
-0.00407455
-0.00409918
-0.00412385
-0.0041485
-0.00417317
-0.00419778
-0.00422242
-0.00424705
-0.00427178
-0.0042966
-0.00432155
-0.0043466
-0.00437175
-0.00439697
-0.00442232
-0.0044478
-0.00447347
-0.00449934
-0.00452541
-0.00455165
-0.00457805
-0.00460458
-0.00463127
-0.00465815
-0.00468522
-0.00471248
-0.00473988
-0.00476739
-0.00479493
-0.00482255
-0.00485022
-0.004878
-0.00490589
-0.00493387
-0.00496192
-0.00498999
-0.0050181
-0.00504625
-0.00507445
-0.00510268
-0.00513092
-0.00515915
-0.00518733
-0.00521553
-0.00524369
-0.00527185