/*--------------------------------*- C++ -*----------------------------------*\
| =========                 |                                                 |
| \\      /  F ield         | OpenFOAM: The Open Source CFD Toolbox           |
|  \\    /   O peration     | Version:  v2006                                 |
|   \\  /    A nd           | Website:  www.openfoam.com                      |
|    \\/     M anipulation  |                                                 |
\*---------------------------------------------------------------------------*/
FoamFile
{
    version     2.0;
    format      ascii;
    class       surfaceScalarField;
    location    "0.9";
    object      phi;
}
// * * * * * * * * * * * * * * * * * * * * * * * * * * * * * * * * * * * * * //

dimensions      [0 3 -1 0 0 0 0];
oriented        oriented;


internalField   nonuniform List<scalar> 
52390
(
1.1701e-06
-3.1026e-07
1.17054e-06
2.80556e-07
1.17302e-06
-2.80221e-07
1.17305e-06
2.26073e-07
1.17673e-06
-2.15376e-07
1.17658e-06
1.78885e-07
1.18015e-06
-1.55287e-07
1.18005e-06
1.21061e-07
1.18324e-06
-1.34253e-07
1.18305e-06
9.84181e-08
1.18599e-06
-1.08959e-07
1.18558e-06
7.82811e-08
1.18842e-06
-9.43341e-08
1.18763e-06
5.71465e-08
1.1903e-06
-7.31687e-08
1.18923e-06
4.46926e-08
1.19194e-06
-5.59275e-08
1.19065e-06
3.05211e-08
1.19338e-06
-4.81235e-08
1.19167e-06
1.78287e-08
1.19435e-06
-4.19001e-08
1.19205e-06
1.11442e-08
1.19481e-06
-3.35374e-08
1.19173e-06
8.71925e-09
1.19466e-06
-2.36911e-08
1.19069e-06
6.93789e-09
1.19329e-06
-1.13454e-08
1.18696e-06
4.58891e-09
1.1825e-06
1.87784e-08
2.3792e-08
1.15401e-06
1.22713e-06
-3.13134e-07
1.22809e-06
2.79598e-07
1.23142e-06
-2.83545e-07
1.23203e-06
2.25465e-07
1.2361e-06
-2.19454e-07
1.23629e-06
1.78699e-07
1.2398e-06
-1.58792e-07
1.24002e-06
1.20832e-07
1.24291e-06
-1.37136e-07
1.24328e-06
9.80472e-08
1.24558e-06
-1.11259e-07
1.24597e-06
7.78946e-08
1.24782e-06
-9.61891e-08
1.24816e-06
5.68035e-08
1.24938e-06
-7.43812e-08
1.24995e-06
4.41197e-08
1.25053e-06
-5.65052e-08
1.25158e-06
2.94689e-08
1.25132e-06
-4.78696e-08
1.25291e-06
1.62398e-08
1.25145e-06
-4.04334e-08
1.25381e-06
8.78239e-09
1.25084e-06
-3.05731e-08
1.25426e-06
5.30792e-09
1.24942e-06
-1.88538e-08
1.25384e-06
2.51407e-09
1.24682e-06
-4.32028e-09
1.2501e-06
1.30446e-09
1.23821e-06
3.06707e-08
3.90845e-08
1.22292e-06
1.28553e-06
-3.15877e-07
1.28932e-06
2.75809e-07
1.29163e-06
-2.8586e-07
1.29485e-06
2.22247e-07
1.29723e-06
-2.2184e-07
1.29996e-06
1.75973e-07
1.30122e-06
-1.60053e-07
1.30375e-06
1.18306e-07
1.3042e-06
-1.37584e-07
1.30702e-06
9.5224e-08
1.30657e-06
-1.10808e-07
1.30951e-06
7.49571e-08
1.30826e-06
-9.49466e-08
1.31137e-06
5.36998e-08
1.3093e-06
-7.23096e-08
1.31274e-06
4.06777e-08
1.30989e-06
-5.36604e-08
1.31369e-06
2.56708e-08
1.31008e-06
-4.42545e-08
1.31411e-06
1.22043e-08
1.30973e-06
-3.6055e-08
1.31391e-06
4.61003e-09
1.30901e-06
-2.5673e-08
1.31297e-06
1.34293e-09
1.30792e-06
-1.38077e-08
1.31077e-06
-3.29108e-10
1.30648e-06
-3.50153e-11
1.30402e-06
3.76823e-09
1.30115e-06
3.35406e-08
6.15869e-08
1.27865e-06
1.34593e-06
-3.17702e-07
1.35208e-06
2.69658e-07
1.35292e-06
-2.86697e-07
1.35855e-06
2.16611e-07
1.35896e-06
-2.2225e-07
1.36401e-06
1.70928e-07
1.36297e-06
-1.59016e-07
1.36732e-06
1.1396e-07
1.36562e-06
-1.35893e-07
1.37015e-06
9.07008e-08
1.36763e-06
-1.0829e-07
1.37194e-06
7.06431e-08
1.36873e-06
-9.1738e-08
1.37298e-06
4.9455e-08
1.3694e-06
-6.87319e-08
1.37355e-06
3.65267e-08
1.36971e-06
-4.98192e-08
1.37357e-06
2.18155e-08
1.36957e-06
-4.0258e-08
1.37303e-06
8.74374e-09
1.36905e-06
-3.20767e-08
1.37207e-06
1.59386e-09
1.36837e-06
-2.19734e-08
1.37063e-06
-9.15525e-10
1.36751e-06
-1.0686e-08
1.36799e-06
-8.15318e-10
1.36634e-06
1.61861e-09
1.36114e-06
8.96978e-09
1.36065e-06
3.40267e-08
8.47859e-08
1.33745e-06
1.40874e-06
-3.18087e-07
1.41605e-06
2.62352e-07
1.41533e-06
-2.85978e-07
1.42231e-06
2.0963e-07
1.42109e-06
-2.21031e-07
1.42735e-06
1.64668e-07
1.42478e-06
-1.56443e-07
1.42976e-06
1.08976e-07
1.427e-06
-1.33132e-07
1.43193e-06
8.57651e-08
1.4287e-06
-1.05051e-07
1.43302e-06
6.63192e-08
1.42937e-06
-8.80868e-08
1.43338e-06
4.54395e-08
1.42987e-06
-6.52226e-08
1.43353e-06
3.28721e-08
1.4301e-06
-4.63917e-08
1.43317e-06
1.87476e-08
1.42979e-06
-3.68833e-08
1.43236e-06
6.18087e-09
1.42917e-06
-2.88887e-08
1.43134e-06
-5.74503e-10
1.4285e-06
-1.914e-08
1.43e-06
-2.41409e-09
1.4277e-06
-8.3841e-09
1.42755e-06
-6.61569e-10
1.42611e-06
3.05952e-09
1.42172e-06
1.33605e-08
1.41885e-06
3.68953e-08
1.10724e-07
1.39291e-06
1.47453e-06
-3.16943e-07
1.48174e-06
2.55145e-07
1.47974e-06
-2.83983e-07
1.48684e-06
2.02538e-07
1.48463e-06
-2.18822e-07
1.49094e-06
1.58359e-07
1.48775e-06
-1.53257e-07
1.49243e-06
1.04297e-07
1.48949e-06
-1.30198e-07
1.49406e-06
8.12004e-08
1.49094e-06
-1.01931e-07
1.49476e-06
6.25025e-08
1.49134e-06
-8.46704e-08
1.49485e-06
4.19244e-08
1.49177e-06
-6.21405e-08
1.49499e-06
2.9655e-08
1.49201e-06
-4.34135e-08
1.49468e-06
1.60739e-08
1.49167e-06
-3.38693e-08
1.49393e-06
3.91856e-09
1.49104e-06
-2.59947e-08
1.49302e-06
-2.5567e-09
1.49043e-06
-1.65498e-08
1.49185e-06
-3.83422e-09
1.48953e-06
-6.06122e-09
1.48985e-06
-9.8015e-10
1.48707e-06
5.83296e-09
1.48492e-06
1.55174e-08
1.48386e-06
3.79563e-08
6.42493e-08
1.53033e-06
1.54378e-06
-3.1451e-07
1.55013e-06
2.48795e-07
1.54724e-06
-2.81088e-07
1.55367e-06
1.9611e-07
1.55096e-06
-2.16116e-07
1.55669e-06
1.52633e-07
1.55342e-06
-1.49991e-07
1.55752e-06
1.00204e-07
1.55469e-06
-1.27371e-07
1.55879e-06
7.71026e-08
1.55588e-06
-9.90295e-08
1.55935e-06
5.90384e-08
1.55611e-06
-8.14329e-08
1.55939e-06
3.8646e-08
1.55647e-06
-5.9224e-08
1.55961e-06
2.65209e-08
1.55676e-06
-4.05621e-08
1.55944e-06
1.33941e-08
1.55649e-06
-3.09216e-08
1.55877e-06
1.6388e-09
1.55593e-06
-2.3161e-08
1.55788e-06
-4.50534e-09
1.55541e-06
-1.408e-08
1.55665e-06
-5.0709e-09
1.55473e-06
-4.13973e-09
1.55415e-06
-4.04536e-10
1.55312e-06
6.86086e-09
1.54829e-06
2.03497e-08
1.54405e-06
4.21958e-08
9.51649e-08
1.51314e-06
1.61675e-06
-3.11133e-07
1.62214e-06
2.43407e-07
1.6186e-06
-2.77551e-07
1.6242e-06
1.90508e-07
1.62118e-06
-2.13088e-07
1.62627e-06
1.47541e-07
1.62301e-06
-1.46735e-07
1.62671e-06
9.65079e-08
1.62385e-06
-1.2451e-07
1.6277e-06
7.32501e-08
1.62479e-06
-9.6115e-08
1.62819e-06
5.56349e-08
1.62489e-06
-7.81311e-08
1.62817e-06
3.53656e-08
1.62514e-06
-5.61989e-08
1.62837e-06
2.32936e-08
1.62545e-06
-3.76423e-08
1.62826e-06
1.0581e-08
1.62529e-06
-2.79529e-08
1.62762e-06
-6.90869e-10
1.62483e-06
-2.03688e-08
1.62668e-06
-6.35213e-09
1.62435e-06
-1.17498e-08
1.62528e-06
-5.99816e-09
1.62367e-06
-2.53842e-09
1.62242e-06
8.46477e-10
1.62207e-06
7.21586e-09
1.61704e-06
2.53783e-08
1.61228e-06
4.695e-08
1.31759e-07
1.57569e-06
1.69352e-06
-3.0708e-07
1.69829e-06
2.38643e-07
1.6942e-06
-2.73465e-07
1.69921e-06
1.85493e-07
1.69582e-06
-2.0969e-07
1.70053e-06
1.42831e-07
1.69716e-06
-1.43367e-07
1.70077e-06
9.28965e-08
1.69766e-06
-1.21396e-07
1.70149e-06
6.94135e-08
1.69834e-06
-9.29659e-08
1.70188e-06
5.21035e-08
1.69834e-06
-7.45981e-08
1.70173e-06
3.19775e-08
1.69846e-06
-5.29269e-08
1.70181e-06
1.99398e-08
1.69876e-06
-3.45849e-08
1.7017e-06
7.63817e-09
1.6987e-06
-2.49559e-08
1.70105e-06
-3.03722e-09
1.69829e-06
-1.76162e-08
1.70002e-06
-8.07896e-09
1.69767e-06
-9.39686e-09
1.69873e-06
-7.06309e-09
1.69604e-06
1.5828e-10
1.69683e-06
5.29239e-11
1.69175e-06
1.23004e-08
1.69629e-06
2.08321e-08
1.69738e-06
4.58594e-08
8.22677e-08
1.74687e-06
1.77414e-06
-3.02497e-07
1.77874e-06
2.34041e-07
1.7741e-06
-2.68828e-07
1.77888e-06
1.80712e-07
1.77502e-06
-2.05822e-07
1.77965e-06
1.38195e-07
1.77603e-06
-1.39743e-07
1.7798e-06
8.912e-08
1.77629e-06
-1.17887e-07
1.78027e-06
6.54383e-08
1.77677e-06
-8.94645e-08
1.78052e-06
4.83529e-08
1.77669e-06
-7.0765e-08
1.78022e-06
2.84437e-08
1.77667e-06
-4.93754e-08
1.78013e-06
1.64774e-08
1.77694e-06
-3.13992e-08
1.77995e-06
4.62979e-09
1.77699e-06
-2.19953e-08
1.77924e-06
-5.2821e-09
1.77665e-06
-1.50308e-08
1.77805e-06
-9.47891e-09
1.77597e-06
-7.31689e-09
1.77653e-06
-7.61671e-09
1.77403e-06
2.65536e-09
1.77464e-06
-5.62809e-10
1.76858e-06
1.83689e-08
1.77501e-06
1.43982e-08
1.77665e-06
4.42197e-08
2.64657e-08
1.83245e-06
1.85869e-06
-2.97441e-07
1.86351e-06
2.29223e-07
1.85829e-06
-2.63605e-07
1.86314e-06
1.75864e-07
1.85872e-06
-2.01402e-07
1.86352e-06
1.33389e-07
1.85954e-06
-1.35762e-07
1.86364e-06
8.50214e-08
1.85968e-06
-1.13923e-07
1.86389e-06
6.1226e-08
1.86e-06
-8.55704e-08
1.86401e-06
4.43388e-08
1.85987e-06
-6.66229e-08
1.86356e-06
2.47489e-08
1.85976e-06
-4.55732e-08
1.8633e-06
1.29388e-08
1.86004e-06
-2.81394e-08
1.86303e-06
1.64163e-09
1.86019e-06
-1.91588e-08
1.86221e-06
-7.30645e-09
1.85992e-06
-1.27351e-08
1.86084e-06
-1.03969e-08
1.85925e-06
-5.72509e-09
1.85884e-06
-7.21275e-09
1.85771e-06
3.78309e-09
1.85566e-06
1.49107e-09
1.85395e-06
2.00745e-08
1.84896e-06
1.93947e-08
1.83915e-06
5.4029e-08
6.23926e-08
1.80322e-06
1.94733e-06
-2.9193e-07
1.95261e-06
2.23945e-07
1.94675e-06
-2.57753e-07
1.95188e-06
1.70735e-07
1.94687e-06
-1.96385e-07
1.95202e-06
1.28238e-07
1.94761e-06
-1.31358e-07
1.95212e-06
8.05103e-08
1.94769e-06
-1.09488e-07
1.9522e-06
5.67112e-08
1.94791e-06
-8.12811e-08
1.95221e-06
4.00407e-08
1.94778e-06
-6.21939e-08
1.95164e-06
2.08933e-08
1.94765e-06
-4.15846e-08
1.95122e-06
9.37289e-09
1.94797e-06
-2.48937e-08
1.95083e-06
-1.21719e-09
1.94823e-06
-1.65568e-08
1.94991e-06
-8.98643e-09
1.94801e-06
-1.08411e-08
1.94837e-06
-1.07506e-08
1.9473e-06
-4.65947e-09
1.94607e-06
-5.9825e-09
1.94576e-06
4.09862e-09
1.94214e-06
5.10888e-09
1.94308e-06
1.91357e-08
1.93191e-06
3.056e-08
1.92725e-06
5.86883e-08
9.36596e-08
1.89598e-06
2.04023e-06
-2.85967e-07
2.04611e-06
2.18064e-07
2.03958e-06
-2.51228e-07
2.04513e-06
1.65183e-07
2.03949e-06
-1.90737e-07
2.0451e-06
1.22624e-07
2.04023e-06
-1.26484e-07
2.0452e-06
7.55376e-08
2.04029e-06
-1.04578e-07
2.04514e-06
5.18576e-08
2.04048e-06
-7.66164e-08
2.04505e-06
3.5464e-08
2.04039e-06
-5.75269e-08
2.04437e-06
1.69081e-08
2.04029e-06
-3.75053e-08
2.0438e-06
5.86171e-09
2.04069e-06
-2.17823e-08
2.04329e-06
-3.81055e-09
2.04105e-06
-1.43218e-08
2.04225e-06
-1.01906e-08
2.04086e-06
-9.44878e-09
2.04063e-06
-1.05209e-08
2.03995e-06
-3.9782e-09
2.03842e-06
-4.44596e-09
2.03766e-06
4.85203e-09
2.03448e-06
8.28612e-09
2.03335e-06
2.02652e-08
2.02628e-06
3.76334e-08
2.01476e-06
7.02123e-08
1.26964e-07
1.98145e-06
2.13758e-06
-2.79545e-07
2.14415e-06
2.1149e-07
2.13691e-06
-2.43982e-07
2.14298e-06
1.59109e-07
2.13668e-06
-1.84433e-07
2.14284e-06
1.16465e-07
2.13746e-06
-1.21103e-07
2.14291e-06
7.00813e-08
2.13753e-06
-9.91994e-08
2.14274e-06
4.66562e-08
2.13773e-06
-7.16118e-08
2.14256e-06
3.06389e-08
2.13772e-06
-5.26912e-08
2.14178e-06
1.28525e-08
2.13772e-06
-3.34452e-08
2.14107e-06
2.50436e-09
2.13821e-06
-1.89209e-08
2.14043e-06
-6.02504e-09
2.13864e-06
-1.25385e-08
2.13932e-06
-1.08699e-08
2.13839e-06
-8.51684e-09
2.13781e-06
-9.93616e-09
2.13697e-06
-3.14586e-09
2.13601e-06
-3.48262e-09
2.1338e-06
7.06428e-09
2.13193e-06
1.01495e-08
2.12625e-06
2.59459e-08
2.13221e-06
3.16766e-08
2.15583e-06
4.65944e-08
5.21061e-08
2.23069e-06
2.2396e-06
-2.72655e-07
2.24693e-06
2.04156e-07
2.23891e-06
-2.35964e-07
2.24558e-06
1.52442e-07
2.2386e-06
-1.77451e-07
2.24536e-06
1.09708e-07
2.23945e-06
-1.15195e-07
2.24539e-06
6.41403e-08
2.23956e-06
-9.33711e-08
2.24509e-06
4.11285e-08
2.2398e-06
-6.63258e-08
2.24481e-06
2.56294e-08
2.23991e-06
-4.7789e-08
2.24393e-06
8.83196e-09
2.24004e-06
-2.95553e-08
2.24309e-06
-5.4206e-10
2.24065e-06
-1.64846e-08
2.2423e-06
-7.679e-09
2.24114e-06
-1.13744e-08
2.24111e-06
-1.08411e-08
2.24086e-06
-8.2655e-09
2.23945e-06
-8.52633e-09
2.23953e-06
-3.22185e-09
2.23717e-06
-1.12405e-09
2.23651e-06
7.72213e-09
2.23309e-06
1.35664e-08
2.23065e-06
2.83915e-08
2.22358e-06
3.87418e-08
2.20751e-06
6.26611e-08
8.30017e-08
2.17662e-06
2.3465e-06
-2.6528e-07
2.35465e-06
1.96009e-07
2.34581e-06
-2.27128e-07
2.35312e-06
1.45131e-07
2.34544e-06
-1.69769e-07
2.35283e-06
1.02323e-07
2.34638e-06
-1.08752e-07
2.35279e-06
5.77302e-08
2.34655e-06
-8.71251e-08
2.35236e-06
3.53204e-08
2.34686e-06
-6.08346e-08
2.35197e-06
2.05246e-08
2.34712e-06
-4.29422e-08
2.35098e-06
4.97472e-09
2.34742e-06
-2.59963e-08
2.35e-06
-3.11732e-09
2.34814e-06
-1.4628e-08
2.3491e-06
-8.63748e-09
2.34864e-06
-1.09171e-08
2.34784e-06
-1.00397e-08
2.34831e-06
-8.73845e-09
2.34594e-06
-6.15179e-09
2.34725e-06
-4.53072e-09
2.343e-06
3.12169e-09
2.34467e-06
6.05164e-09
2.33876e-06
1.94785e-08
2.33962e-06
2.75328e-08
2.32477e-06
5.35878e-08
2.3152e-06
7.223e-08
1.07265e-07
2.29094e-06
2.45852e-06
-2.57409e-07
2.46752e-06
1.8701e-07
2.45783e-06
-2.17439e-07
2.46582e-06
1.37149e-07
2.45743e-06
-1.6138e-07
2.46544e-06
9.43066e-08
2.45849e-06
-1.01795e-07
2.46532e-06
5.08944e-08
2.45872e-06
-8.05232e-08
2.46473e-06
2.93142e-08
2.45914e-06
-5.5248e-08
2.46422e-06
1.54482e-08
2.45957e-06
-3.82932e-08
2.46313e-06
1.41467e-09
2.46003e-06
-2.28938e-08
2.46205e-06
-5.14205e-09
2.46079e-06
-1.33679e-08
2.46114e-06
-8.98966e-09
2.46111e-06
-1.08829e-08
2.46009e-06
-9.02008e-09
2.46032e-06
-8.97167e-09
2.45873e-06
-4.56368e-09
2.45839e-06
-4.18964e-09
2.45624e-06
5.27214e-09
2.45471e-06
7.5854e-09
2.45154e-06
2.26451e-08
2.44899e-06
3.00838e-08
2.44084e-06
6.17412e-08
2.42267e-06
9.04004e-08
1.41497e-07
2.38844e-06
2.57592e-06
-2.49036e-07
2.5858e-06
1.77131e-07
2.57524e-06
-2.06874e-07
2.5839e-06
1.28485e-07
2.57481e-06
-1.52293e-07
2.58344e-06
8.56848e-08
2.57601e-06
-9.43703e-08
2.5832e-06
4.37002e-08
2.57634e-06
-7.36562e-08
2.58243e-06
2.32233e-08
2.57688e-06
-4.97037e-08
2.58178e-06
1.05517e-08
2.57749e-06
-3.40006e-08
2.58061e-06
-1.70456e-09
2.57808e-06
-2.03654e-08
2.5795e-06
-6.56485e-09
2.5788e-06
-1.26677e-08
2.5787e-06
-8.88483e-09
2.57881e-06
-1.09991e-08
2.57797e-06
-8.17751e-09
2.57738e-06
-8.38593e-09
2.57732e-06
-4.49887e-09
2.57446e-06
-1.33338e-09
2.57552e-06
4.21708e-09
2.57e-06
1.3107e-08
2.56926e-06
2.33814e-08
2.56137e-06
3.79755e-08
2.5784e-06
4.47089e-08
2.6142e-06
5.46021e-08
5.46473e-08
2.70105e-06
2.69895e-06
-2.40158e-07
2.70973e-06
1.66353e-07
2.69828e-06
-1.95429e-07
2.70762e-06
1.19145e-07
2.69786e-06
-1.42534e-07
2.70704e-06
7.65065e-08
2.69922e-06
-8.65501e-08
2.70668e-06
3.62436e-08
2.69968e-06
-6.66536e-08
2.70569e-06
1.72059e-08
2.70038e-06
-4.43892e-08
2.70488e-06
6.04666e-09
2.70117e-06
-3.02891e-08
2.70363e-06
-4.16597e-09
2.70187e-06
-1.86001e-08
2.70254e-06
-7.23403e-09
2.70255e-06
-1.26761e-08
2.70174e-06
-8.08261e-09
2.70248e-06
-1.17402e-08
2.70082e-06
-6.50808e-09
2.70135e-06
-8.92142e-09
2.69942e-06
-2.56821e-09
2.69902e-06
-9.35505e-10
2.69673e-06
6.51403e-09
2.69477e-06
1.50585e-08
2.69188e-06
2.62734e-08
2.68838e-06
4.1477e-08
2.67932e-06
5.37674e-08
2.6582e-06
7.57265e-08
8.94976e-08
2.62335e-06
2.82788e-06
-2.30769e-07
2.83957e-06
1.54666e-07
2.82724e-06
-1.83107e-07
2.83724e-06
1.09148e-07
2.82684e-06
-1.32134e-07
2.83651e-06
6.6833e-08
2.82838e-06
-7.84126e-08
2.836e-06
2.86237e-08
2.82899e-06
-5.96452e-08
2.8348e-06
1.1394e-08
2.82982e-06
-3.94105e-08
2.83386e-06
2.00576e-09
2.83076e-06
-2.71826e-08
2.83259e-06
-5.99696e-09
2.83151e-06
-1.75263e-08
2.83157e-06
-7.28871e-09
2.83207e-06
-1.31756e-08
2.83081e-06
-6.82308e-09
2.83205e-06
-1.29856e-08
2.82944e-06
-3.89268e-09
2.83142e-06
-1.09044e-08
2.82697e-06
1.88271e-09
2.83009e-06
-4.05071e-09
2.82358e-06
1.30228e-08
2.8271e-06
1.15312e-08
2.81943e-06
3.39501e-08
2.82053e-06
4.03722e-08
2.79993e-06
7.43654e-08
2.79053e-06
8.51325e-08
1.14224e-07
2.7658e-06
2.963e-06
-2.20876e-07
2.97558e-06
1.42092e-07
2.96242e-06
-1.6995e-07
2.97301e-06
9.85566e-08
2.96205e-06
-1.21174e-07
2.9721e-06
5.67868e-08
2.96379e-06
-7.01035e-08
2.97139e-06
2.10242e-08
2.96461e-06
-5.28729e-08
2.96992e-06
6.09041e-09
2.96569e-06
-3.51824e-08
2.96877e-06
-1.0703e-09
2.96675e-06
-2.51701e-08
2.96755e-06
-6.797e-09
2.96737e-06
-1.7345e-08
2.96685e-06
-6.76546e-09
2.96758e-06
-1.39087e-08
2.96644e-06
-5.68499e-09
2.96713e-06
-1.36694e-08
2.96559e-06
-2.35398e-09
2.96573e-06
-1.10461e-08
2.9637e-06
3.90994e-09
2.96328e-06
-3.6263e-09
2.9602e-06
1.61044e-08
2.95852e-06
1.3211e-08
2.95599e-06
3.64807e-08
2.9533e-06
4.30552e-08
2.94231e-06
8.53613e-08
2.91689e-06
1.10552e-07
1.5214e-07
2.87897e-06
3.10463e-06
-2.10501e-07
3.11805e-06
1.2867e-07
3.10413e-06
-1.56023e-07
3.11523e-06
8.74496e-08
3.10381e-06
-1.09747e-07
3.1141e-06
4.64931e-08
3.10575e-06
-6.17482e-08
3.1132e-06
1.35672e-08
3.10676e-06
-4.643e-08
3.11157e-06
1.27738e-09
3.10787e-06
-3.1481e-08
3.11049e-06
-3.69418e-09
3.10869e-06
-2.33679e-08
3.1098e-06
-7.90253e-09
3.10865e-06
-1.62019e-08
3.10994e-06
-8.04974e-09
3.10786e-06
-1.1829e-08
3.11057e-06
-8.39382e-09
3.10609e-06
-9.19247e-09
3.11091e-06
-7.17753e-09
3.10318e-06
-3.31259e-09
3.11055e-06
-3.46034e-09
3.09998e-06
6.94486e-09
3.10801e-06
8.07683e-09
3.09565e-06
2.55675e-08
3.09909e-06
3.30464e-08
3.08855e-06
5.35864e-08
3.12147e-06
5.24509e-08
3.16761e-06
6.44115e-08
5.99309e-08
3.25981e-06
3.25309e-06
-1.99681e-07
3.2673e-06
1.14464e-07
3.25271e-06
-1.41436e-07
3.26421e-06
7.59504e-08
3.25245e-06
-9.7993e-08
3.26281e-06
3.61352e-08
3.25461e-06
-5.35475e-08
3.26168e-06
6.49597e-09
3.25588e-06
-4.06324e-08
3.2598e-06
-2.6391e-09
3.25721e-06
-2.88856e-08
3.25857e-06
-5.05837e-09
3.25816e-06
-2.29544e-08
3.25772e-06
-7.4695e-09
3.25847e-06
-1.69523e-08
3.25725e-06
-6.82422e-09
3.25872e-06
-1.33013e-08
3.25651e-06
-6.17989e-09
3.25867e-06
-1.13536e-08
3.25473e-06
-3.23879e-09
3.25795e-06
-6.52915e-09
3.25191e-06
2.57481e-09
3.25554e-06
3.31839e-09
3.24832e-06
1.5291e-08
3.25218e-06
2.17125e-08
3.24599e-06
3.92364e-08
3.24752e-06
5.20552e-08
3.22684e-06
7.31273e-08
3.20333e-06
8.79275e-08
1.01753e-07
3.1615e-06
3.40869e-06
-1.88443e-07
3.42361e-06
9.95521e-08
3.40849e-06
-1.26324e-07
3.42024e-06
6.42063e-08
3.40832e-06
-8.60729e-08
3.41852e-06
2.59293e-08
3.41071e-06
-4.57386e-08
3.41712e-06
8.96452e-11
3.41231e-06
-3.5825e-08
3.41495e-06
-5.27927e-09
3.41386e-06
-2.77885e-08
3.41361e-06
-4.81293e-09
3.41478e-06
-2.41254e-08
3.41281e-06
-5.50155e-09
3.41514e-06
-1.92804e-08
3.41223e-06
-3.91493e-09
3.4155e-06
-1.65671e-08
3.41136e-06
-2.0416e-09
3.4154e-06
-1.53897e-08
3.4096e-06
2.55275e-09
3.41453e-06
-1.14586e-08
3.40653e-06
1.05749e-08
3.41242e-06
-2.56406e-09
3.40312e-06
2.45847e-08
3.40817e-06
1.66623e-08
3.40188e-06
4.55281e-08
3.40674e-06
4.7199e-08
3.38238e-06
9.74809e-08
3.35541e-06
1.14906e-07
1.46229e-07
3.31093e-06
3.57182e-06
-1.76853e-07
3.58731e-06
8.40664e-08
3.57186e-06
-1.1088e-07
3.58366e-06
5.24053e-08
3.57174e-06
-7.41472e-08
3.58165e-06
1.602e-08
3.57422e-06
-3.83096e-08
3.58023e-06
-5.92275e-09
3.57568e-06
-3.12739e-08
3.57852e-06
-8.12194e-09
3.57645e-06
-2.57195e-08
3.57826e-06
-6.61641e-09
3.5761e-06
-2.19708e-08
3.57884e-06
-8.236e-09
3.57493e-06
-1.5371e-08
3.57998e-06
-8.96603e-09
3.57316e-06
-9.74946e-09
3.58148e-06
-1.0358e-08
3.57034e-06
-4.24855e-09
3.58243e-06
-9.54139e-09
3.56689e-06
4.0865e-09
3.58238e-06
-4.91529e-09
3.56369e-06
1.61209e-08
3.58007e-06
8.20778e-09
3.55971e-06
3.70235e-08
3.56992e-06
3.53143e-08
3.5558e-06
6.13204e-08
3.60437e-06
4.89046e-08
3.65651e-06
6.27678e-08
5.82417e-08
3.7445e-06
3.74284e-06
-1.64991e-07
3.75874e-06
6.81718e-08
3.74324e-06
-9.53798e-08
3.75483e-06
4.08107e-08
3.74316e-06
-6.24709e-08
3.75243e-06
6.75074e-09
3.74577e-06
-3.16545e-08
3.75084e-06
-1.09934e-08
3.74742e-06
-2.78524e-08
3.74899e-06
-9.68906e-09
3.74859e-06
-2.53225e-08
3.74795e-06
-5.97472e-09
3.74952e-06
-2.35386e-08
3.74671e-06
-5.43245e-09
3.7506e-06
-1.92581e-08
3.74524e-06
-3.6023e-09
3.75169e-06
-1.62052e-08
3.74362e-06
-2.29168e-09
3.75192e-06
-1.25448e-08
3.74213e-06
2.51665e-10
3.75026e-06
-4.04213e-09
3.73955e-06
5.79048e-09
3.7469e-06
8.77183e-09
3.73722e-06
1.78881e-08
3.74504e-06
2.92015e-08
3.73816e-06
4.21983e-08
3.73795e-06
6.15264e-08
3.71471e-06
7.21488e-08
3.68433e-06
9.31462e-08
1.07435e-07
3.63514e-06
3.92212e-06
-1.52925e-07
3.93823e-06
5.20674e-08
3.92303e-06
-8.01857e-08
3.93407e-06
2.9774e-08
3.92298e-06
-5.13792e-08
3.93119e-06
-1.46066e-09
3.9256e-06
-2.6067e-08
3.9296e-06
-1.49881e-08
3.92715e-06
-2.54079e-08
3.92804e-06
-1.05822e-08
3.92822e-06
-2.54958e-08
3.92689e-06
-4.64576e-09
3.92952e-06
-2.61658e-08
3.92508e-06
-9.9921e-10
3.93129e-06
-2.54607e-08
3.92274e-06
4.94723e-09
3.93326e-06
-2.67332e-08
3.92013e-06
1.08431e-08
3.9348e-06
-2.72113e-08
3.91678e-06
1.82651e-08
3.93508e-06
-2.23393e-08
3.9134e-06
2.74674e-08
3.93389e-06
-1.17149e-08
3.91156e-06
4.02163e-08
3.93403e-06
6.73013e-09
3.91561e-06
6.06182e-08
3.93649e-06
4.06487e-08
3.89082e-06
1.17821e-07
3.85828e-06
1.25681e-07
1.55167e-07
3.81055e-06
4.11008e-06
-1.40755e-07
4.12617e-06
3.5974e-08
4.11163e-06
-6.56458e-08
4.1219e-06
1.95095e-08
4.11129e-06
-4.07711e-08
4.11892e-06
-9.0891e-09
4.1133e-06
-2.04507e-08
4.11833e-06
-2.00149e-08
4.11333e-06
-2.04053e-08
4.11885e-06
-1.6108e-08
4.11193e-06
-1.8578e-08
4.12045e-06
-1.31581e-08
4.11e-06
-1.57209e-08
4.12216e-06
-1.31566e-08
4.10803e-06
-1.13341e-08
4.12354e-06
-1.05591e-08
4.10648e-06
-9.67658e-09
4.12431e-06
-6.98355e-09
4.10479e-06
-7.68802e-09
4.12397e-06
-9.20838e-10
4.10315e-06
-1.51784e-09
4.12144e-06
9.17861e-09
4.10108e-06
8.64034e-09
4.117e-06
2.42952e-08
4.09828e-06
2.54537e-08
4.11631e-06
4.25886e-08
4.10783e-06
4.91249e-08
4.15863e-06
6.70228e-08
4.21076e-06
7.35591e-08
8.49994e-08
4.28092e-06
4.30718e-06
-1.28635e-07
4.3229e-06
2.02617e-08
4.30988e-06
-5.26281e-08
4.31847e-06
1.0913e-08
4.30927e-06
-3.15699e-08
4.31485e-06
-1.46695e-08
4.31103e-06
-1.66234e-08
4.31429e-06
-2.3281e-08
4.31102e-06
-1.71298e-08
4.31508e-06
-2.01714e-08
4.30967e-06
-1.31643e-08
4.31661e-06
-2.01009e-08
4.3078e-06
-6.91392e-09
4.31839e-06
-2.37461e-08
4.30564e-06
1.41762e-09
4.32003e-06
-2.49487e-08
4.30372e-06
6.62775e-09
4.32118e-06
-2.4435e-08
4.30173e-06
1.17539e-08
4.32103e-06
-2.0216e-08
4.29957e-06
1.99455e-08
4.31966e-06
-1.0914e-08
4.29717e-06
3.11338e-08
4.31527e-06
6.19145e-09
4.29332e-06
4.73998e-08
4.31272e-06
2.31908e-08
4.31095e-06
5.08943e-08
4.36179e-06
1.6185e-08
4.41013e-06
2.52211e-08
3.96664e-09
4.49116e-06
4.51391e-06
-1.16771e-07
4.52871e-06
5.46057e-09
4.51864e-06
-4.25582e-08
4.52441e-06
5.1441e-09
4.51694e-06
-2.40968e-08
4.52015e-06
-1.78872e-08
4.51839e-06
-1.48635e-08
4.51897e-06
-2.38611e-08
4.51944e-06
-1.75986e-08
4.51843e-06
-1.91628e-08
4.52031e-06
-1.50408e-08
4.51752e-06
-1.73101e-08
4.52128e-06
-1.06751e-08
4.51621e-06
-1.86745e-08
4.52226e-06
-4.63206e-09
4.51503e-06
-1.77171e-08
4.52298e-06
-1.32632e-09
4.514e-06
-1.54561e-08
4.52233e-06
3.42862e-09
4.51242e-06
-1.03039e-08
4.51951e-06
1.28515e-08
4.50873e-06
-1.36922e-10
4.51364e-06
2.62283e-08
4.50478e-06
1.50497e-08
4.51247e-06
3.97073e-08
4.50525e-06
3.04163e-08
4.50887e-06
4.72718e-08
4.48037e-06
4.4682e-08
4.44279e-06
6.28077e-08
6.15945e-08
4.38516e-06
4.73047e-06
-1.05124e-07
4.74471e-06
-8.779e-09
4.73559e-06
-3.34423e-08
4.74104e-06
-3.01162e-10
4.73366e-06
-1.67226e-08
4.73634e-06
-2.05642e-08
4.73478e-06
-1.33071e-08
4.73456e-06
-2.3633e-08
4.73682e-06
-1.9866e-08
4.73305e-06
-1.53856e-08
4.73873e-06
-2.07252e-08
4.73127e-06
-9.84972e-09
4.74042e-06
-1.9828e-08
4.7292e-06
-7.44817e-09
4.74211e-06
-1.75481e-08
4.72725e-06
-2.85272e-09
4.74342e-06
-1.75016e-08
4.72583e-06
2.13345e-09
4.74318e-06
-1.39162e-08
4.72467e-06
8.20218e-09
4.74168e-06
-4.15299e-09
4.72328e-06
1.82562e-08
4.74037e-06
9.1429e-09
4.72323e-06
3.219e-08
4.73698e-06
2.59549e-08
4.71478e-06
5.26173e-08
4.71189e-06
5.01656e-08
4.68711e-06
6.94571e-08
4.68071e-06
6.92137e-08
9.40417e-08
4.64826e-06
4.95781e-06
-9.41395e-08
4.96955e-06
-2.05203e-08
4.9662e-06
-3.00846e-08
4.96522e-06
6.76146e-10
4.96464e-06
-1.61436e-08
4.9603e-06
-1.6227e-08
4.96359e-06
-1.65914e-08
4.95973e-06
-1.9772e-08
4.96424e-06
-2.43768e-08
4.95976e-06
-1.09069e-08
4.96456e-06
-2.55273e-08
4.95962e-06
-4.90523e-09
4.96472e-06
-2.49331e-08
4.95911e-06
-1.83614e-09
4.96484e-06
-2.32817e-08
4.95885e-06
3.13856e-09
4.96425e-06
-2.29024e-08
4.95838e-06
8.0045e-09
4.96203e-06
-1.75666e-08
4.95491e-06
1.53247e-08
4.95677e-06
-6.01486e-09
4.95012e-06
2.49041e-08
4.95142e-06
7.84537e-09
4.94754e-06
3.60737e-08
4.94795e-06
2.55398e-08
4.94972e-06
5.08503e-08
4.94762e-06
5.22654e-08
4.91911e-06
9.79613e-08
4.87565e-06
1.12677e-07
1.30518e-07
4.83918e-06
5.19574e-06
-8.35616e-08
5.20697e-06
-3.17545e-08
5.20188e-06
-2.49889e-08
5.20594e-06
-3.38347e-09
5.19722e-06
-7.42839e-09
5.2038e-06
-2.28028e-08
5.19495e-06
-7.74163e-09
5.20528e-06
-3.01038e-08
5.19304e-06
-1.21396e-08
5.20751e-06
-2.5376e-08
5.19077e-06
-8.79055e-09
5.20951e-06
-2.36398e-08
5.18883e-06
-4.25817e-09
5.21081e-06
-2.38131e-08
5.18743e-06
1.03128e-10
5.21142e-06
-2.08511e-08
5.18694e-06
1.57213e-09
5.21111e-06
-1.61636e-08
5.18698e-06
6.5591e-09
5.20986e-06
-7.55198e-09
5.18737e-06
1.64722e-08
5.20644e-06
5.83346e-09
5.18296e-06
3.133e-08
5.19356e-06
2.54741e-08
5.17325e-06
4.58519e-08
5.18491e-06
3.91883e-08
5.19085e-06
4.63271e-08
5.26305e-06
2.57544e-08
5.34998e-06
2.5753e-08
2.6554e-08
5.45394e-06
5.44558e-06
-7.39524e-08
5.45227e-06
-3.84469e-08
5.45509e-06
-2.7809e-08
5.44918e-06
2.5311e-09
5.45434e-06
-1.25952e-08
5.4449e-06
-1.33568e-08
5.45205e-06
-1.48892e-08
5.44477e-06
-2.28309e-08
5.45136e-06
-1.87289e-08
5.44591e-06
-1.99187e-08
5.45073e-06
-1.36108e-08
5.44687e-06
-1.97821e-08
5.44984e-06
-7.23455e-09
5.44657e-06
-2.05362e-08
5.44882e-06
-2.15369e-09
5.44497e-06
-1.69994e-08
5.44651e-06
3.35022e-11
5.44297e-06
-1.26266e-08
5.44324e-06
6.29367e-09
5.43981e-06
-4.11791e-09
5.44037e-06
1.59117e-08
5.43594e-06
1.02582e-08
5.43623e-06
3.10361e-08
5.4342e-06
2.75072e-08
5.43538e-06
4.46726e-08
5.43459e-06
3.99791e-08
5.42392e-06
5.69956e-08
5.39767e-06
5.20039e-08
5.35923e-06
6.41978e-08
6.43753e-08
5.32141e-06
5.70691e-06
-6.49064e-08
5.71276e-06
-4.42945e-08
5.71396e-06
-2.90123e-08
5.71412e-06
2.37483e-09
5.7129e-06
-1.13737e-08
5.70925e-06
-9.70595e-09
5.7102e-06
-1.58405e-08
5.70657e-06
-1.92034e-08
5.71099e-06
-2.31531e-08
5.70669e-06
-1.5616e-08
5.71224e-06
-1.91602e-08
5.70629e-06
-1.38289e-08
5.71278e-06
-1.37227e-08
5.70505e-06
-1.28109e-08
5.71305e-06
-1.01499e-08
5.70445e-06
-8.40031e-09
5.71265e-06
-8.16438e-09
5.70323e-06
-3.21253e-09
5.70995e-06
-4.25798e-10
5.70003e-06
5.80622e-09
5.7044e-06
1.15356e-08
5.69657e-06
1.80935e-08
5.70145e-06
2.61574e-08
5.69426e-06
3.46991e-08
5.69442e-06
4.45069e-08
5.68191e-06
5.2487e-08
5.67701e-06
6.18972e-08
5.65989e-06
6.91212e-08
5.64499e-06
7.90975e-08
8.7312e-08
5.62206e-06
5.98105e-06
-5.67681e-08
5.983e-06
-4.62438e-08
5.98789e-06
-3.38958e-08
5.98629e-06
3.97415e-09
5.98834e-06
-1.34247e-08
5.98047e-06
-1.83647e-09
5.98665e-06
-2.20217e-08
5.97772e-06
-1.02703e-08
5.98723e-06
-3.26702e-08
5.97791e-06
-6.29221e-09
5.98736e-06
-2.86127e-08
5.9783e-06
-4.76535e-09
5.98691e-06
-2.23334e-08
5.97828e-06
-4.18331e-09
5.98511e-06
-1.69727e-08
5.97735e-06
-6.42474e-10
5.98048e-06
-1.12971e-08
5.97449e-06
2.78153e-09
5.97671e-06
-2.64702e-09
5.9717e-06
1.08178e-08
5.97436e-06
8.87316e-09
5.96981e-06
2.26425e-08
5.97315e-06
2.28149e-08
5.96815e-06
3.97045e-08
5.9675e-06
4.5153e-08
5.95554e-06
6.44447e-08
5.94939e-06
6.80453e-08
5.93248e-06
8.60341e-08
5.91983e-06
9.17531e-08
1.02326e-07
5.90481e-06
6.26831e-06
-4.95852e-08
6.26586e-06
-4.38021e-08
6.27515e-06
-4.31845e-08
6.2698e-06
9.32221e-09
6.27689e-06
-2.05061e-08
6.26537e-06
9.67488e-09
6.27461e-06
-3.12557e-08
6.26336e-06
9.74062e-10
6.27446e-06
-4.37646e-08
6.26378e-06
4.38681e-09
6.27425e-06
-3.90821e-08
6.26422e-06
5.264e-09
6.27391e-06
-3.2019e-08
6.26388e-06
5.83868e-09
6.27269e-06
-2.57797e-08
6.2625e-06
9.55157e-09
6.26972e-06
-1.8516e-08
6.25963e-06
1.28643e-08
6.26485e-06
-7.86047e-09
6.25703e-06
1.86292e-08
6.26078e-06
5.12819e-09
6.25415e-06
2.92723e-08
6.25619e-06
2.07788e-08
6.25371e-06
4.21839e-08
6.26115e-06
3.77074e-08
6.25707e-06
6.85248e-08
6.24806e-06
7.70535e-08
6.21332e-06
1.20775e-07
6.16472e-06
1.40357e-07
1.28921e-07
6.13812e-06
6.5679e-06
-4.20126e-08
6.57605e-06
-5.19558e-08
6.56152e-06
-2.86499e-08
6.5802e-06
-9.36057e-09
6.5602e-06
-5.10866e-10
6.58073e-06
-1.08517e-08
6.55894e-06
-9.46739e-09
6.58037e-06
-2.0457e-08
6.55837e-06
-2.17652e-08
6.58064e-06
-1.78765e-08
6.55815e-06
-1.65934e-08
6.58018e-06
-1.67668e-08
6.55877e-06
-1.06101e-08
6.57886e-06
-1.42546e-08
6.55937e-06
-6.28605e-09
6.57811e-06
-9.18966e-09
6.56039e-06
-8.00019e-10
6.57594e-06
-2.68436e-09
6.55971e-06
8.37127e-09
6.56952e-06
8.82158e-09
6.55604e-06
1.86112e-08
6.56274e-06
2.25656e-08
6.54915e-06
3.43765e-08
6.55119e-06
4.01403e-08
6.54243e-06
4.64619e-08
6.57002e-06
4.09417e-08
6.60439e-06
4.26814e-08
6.68595e-06
3.92118e-08
6.78604e-06
4.02658e-08
5.81092e-08
6.85686e-06
6.88466e-06
-3.6887e-08
6.87781e-06
-4.50967e-08
6.88942e-06
-4.02654e-08
6.88106e-06
-1.00429e-09
6.89272e-06
-1.21624e-08
6.88079e-06
1.07693e-09
6.88887e-06
-1.75463e-08
6.87986e-06
-1.14508e-08
6.88669e-06
-2.8593e-08
6.87987e-06
-1.10589e-08
6.88654e-06
-2.32648e-08
6.87998e-06
-1.02049e-08
6.88612e-06
-1.67466e-08
6.87831e-06
-6.44412e-09
6.88368e-06
-1.16578e-08
6.87491e-06
-4.25903e-10
6.87932e-06
-5.21062e-09
6.87186e-06
4.77999e-09
6.8752e-06
5.03205e-09
6.8696e-06
1.44178e-08
6.87299e-06
1.52292e-08
6.87308e-06
2.24715e-08
6.88611e-06
2.1351e-08
6.89826e-06
2.79882e-08
6.90972e-06
3.5e-08
6.8963e-06
5.43584e-08
6.8693e-06
6.9683e-08
6.81714e-06
9.13731e-08
6.75126e-06
1.06148e-07
8.12233e-08
6.72814e-06
7.21265e-06
-3.04054e-08
7.223e-06
-5.54371e-08
7.20143e-06
-1.86972e-08
7.22599e-06
-2.55677e-08
7.20146e-06
1.23656e-08
7.2271e-06
-2.45633e-08
7.20115e-06
8.40549e-09
7.22612e-06
-3.64212e-08
7.20164e-06
-4.1071e-09
7.22463e-06
-3.40583e-08
7.20272e-06
-1.34717e-09
7.22278e-06
-3.02709e-08
7.20391e-06
2.12346e-09
7.22123e-06
-2.37612e-08
7.2053e-06
4.26964e-09
7.21883e-06
-1.39513e-08
7.20396e-06
9.65941e-09
7.2124e-06
-3.65781e-09
7.19992e-06
1.75032e-08
7.20655e-06
7.79112e-09
7.19796e-06
2.3825e-08
7.20287e-06
1.75522e-08
7.19068e-06
3.35479e-08
7.19107e-06
2.75972e-08
7.19119e-06
3.4877e-08
7.22271e-06
2.28356e-08
7.26966e-06
2.27339e-08