/*--------------------------------*- C++ -*----------------------------------*\
| =========                 |                                                 |
| \\      /  F ield         | OpenFOAM: The Open Source CFD Toolbox           |
|  \\    /   O peration     | Version:  v2006                                 |
|   \\  /    A nd           | Website:  www.openfoam.com                      |
|    \\/     M anipulation  |                                                 |
\*---------------------------------------------------------------------------*/
FoamFile
{
    version     2.0;
    format      ascii;
    class       volVectorField;
    location    "0.9";
    object      U;
}
// * * * * * * * * * * * * * * * * * * * * * * * * * * * * * * * * * * * * * //

dimensions      [0 1 -1 0 0 0 0];


internalField   nonuniform List<vector> 
26400
(
(0.90881 -0.00464261 0)
(1.09216 0.00445531 0)
(0.913622 -0.00467543 0)
(1.09084 0.00400725 0)
(0.919611 -0.00399542 0)
(1.09202 0.00354386 0)
(0.924607 -0.0032092 0)
(1.0928 0.00268331 0)
(0.929683 -0.00310016 0)
(1.09313 0.00243749 0)
(0.93435 -0.00280797 0)
(1.0934 0.00216371 0)
(0.938123 -0.0027128 0)
(1.094 0.00175923 0)
(0.940868 -0.00234495 0)
(1.09466 0.00153012 0)
(0.942819 -0.00199105 0)
(1.09557 0.00115746 0)
(0.944128 -0.00190612 0)
(1.0969 0.000731262 0)
(0.944426 -0.0018485 0)
(1.09843 0.000471254 0)
(0.943284 -0.001639 0)
(1.10036 0.000364639 0)
(0.940529 -0.00127174 0)
(1.10272 0.000259841 0)
(0.935595 -0.000659397 0)
(1.10495 2.91757e-05 0)
(0.927116 0.0011175 0)
(1.10604 0.00037506 0)
(0.91572 -0.00468312 0)
(1.08629 0.00444885 0)
(0.922951 -0.00473152 0)
(1.08506 0.0040096 0)
(0.930663 -0.00407694 0)
(1.08558 0.0035485 0)
(0.937133 -0.00329188 0)
(1.08518 0.00268439 0)
(0.943457 -0.00318075 0)
(1.08414 0.0024389 0)
(0.949594 -0.00288729 0)
(1.08267 0.00216967 0)
(0.955134 -0.00279512 0)
(1.08105 0.00177411 0)
(0.960113 -0.00242399 0)
(1.07887 0.00155218 0)
(0.965001 -0.00207155 0)
(1.07607 0.00118338 0)
(0.970134 -0.00198686 0)
(1.07255 0.00077238 0)
(0.975545 -0.00191999 0)
(1.06772 0.000540739 0)
(0.981407 -0.00169285 0)
(1.06116 0.000463037 0)
(0.988227 -0.00128085 0)
(1.05219 0.000367811 0)
(0.996116 -0.000536897 0)
(1.03947 0.000229268 0)
(1.00471 0.00203391 0)
(1.02043 0.00152221 0)
(0.927957 -0.00473036 0)
(1.07445 0.00441892 0)
(0.937824 -0.00478333 0)
(1.07311 0.00398372 0)
(0.947819 -0.00414615 0)
(1.07255 0.003528 0)
(0.956291 -0.00335094 0)
(1.07044 0.00266009 0)
(0.964057 -0.00322755 0)
(1.0676 0.00240546 0)
(0.971692 -0.00291765 0)
(1.06406 0.00212889 0)
(0.978681 -0.00280798 0)
(1.06008 0.00172424 0)
(0.985224 -0.0024086 0)
(1.05552 0.00148063 0)
(0.991607 -0.00202059 0)
(1.05037 0.00107564 0)
(0.99782 -0.00188261 0)
(1.04483 0.00061586 0)
(1.00367 -0.00173339 0)
(1.03884 0.000312283 0)
(1.00892 -0.00140287 0)
(1.03266 0.000148501 0)
(1.01332 -0.000887528 0)
(1.02651 1.80222e-05 0)
(1.01605 -0.000125961 0)
(1.02033 7.80741e-05 0)
(1.01585 0.00218287 0)
(1.01457 0.00377498 0)
(0.943347 -0.0047645 0)
(1.05853 0.00434234 0)
(0.95437 -0.00481042 0)
(1.05687 0.00390557 0)
(0.965674 -0.00417154 0)
(1.05537 0.00345138 0)
(0.975197 -0.0033506 0)
(1.052 0.00258269 0)
(0.983194 -0.00320761 0)
(1.04827 0.00231069 0)
(0.990816 -0.0028705 0)
(1.04405 0.00202085 0)
(0.997277 -0.00273151 0)
(1.0396 0.00159848 0)
(1.00294 -0.00230228 0)
(1.03526 0.00133289 0)
(1.00786 -0.00188293 0)
(1.03103 0.000907943 0)
(1.0118 -0.00171194 0)
(1.02715 0.000433061 0)
(1.01469 -0.00153217 0)
(1.02369 0.000123239 0)
(1.0165 -0.00118282 0)
(1.02081 -2.16226e-05 0)
(1.01722 -0.000645007 0)
(1.01832 -8.28719e-05 0)
(1.01647 0.000161606 0)
(1.01562 0.00024874 0)
(1.01384 0.00254683 0)
(1.01278 0.00594599 0)
(0.959204 -0.00477788 0)
(1.04157 0.00422979 0)
(0.96932 -0.00480968 0)
(1.03969 0.00378698 0)
(0.98016 -0.00415986 0)
(1.03788 0.00333158 0)
(0.989058 -0.00330696 0)
(1.03438 0.002471 0)
(0.995721 -0.00314901 0)
(1.03113 0.00218386 0)
(1.0018 -0.00278858 0)
(1.02781 0.0018909 0)
(1.0063 -0.00262546 0)
(1.02454 0.00146077 0)
(1.00987 -0.0021835 0)
(1.02192 0.00119092 0)
(1.01253 -0.00175153 0)
(1.01967 0.00077315 0)
(1.01409 -0.00156902 0)
(1.0178 0.000311431 0)
(1.01477 -0.00138548 0)
(1.01627 1.58429e-05 0)
(1.01479 -0.00104531 0)
(1.01507 -9.12173e-05 0)
(1.01427 -0.00054416 0)
(1.01381 -3.09825e-05 0)
(1.01286 2.36765e-05 0)
(1.01187 0.00111143 0)
(1.01036 0.00165617 0)
(1.00963 0.00844371 0)
(0.973129 -0.004769 0)
(1.02652 0.00410701 0)
(0.980747 -0.00478503 0)
(1.0247 0.00365432 0)
(0.989638 -0.00412552 0)
(1.02325 0.00319902 0)
(0.996646 -0.00324439 0)
(1.02056 0.00235745 0)
(1.0012 -0.00308142 0)
(1.01853 0.00206071 0)
(1.00527 -0.00270578 0)
(1.01666 0.00177506 0)
(1.00782 -0.00252393 0)
(1.01482 0.00134375 0)
(1.00966 -0.00207955 0)
(1.01371 0.00107485 0)
(1.01089 -0.0016398 0)
(1.01279 0.000669762 0)
(1.01131 -0.0014465 0)
(1.01194 0.000222855 0)
(1.01119 -0.00125897 0)
(1.01115 -6.62892e-05 0)
(1.01076 -0.000923484 0)
(1.01044 -0.000144516 0)
(1.01009 -0.000453439 0)
(1.00946 -6.43752e-06 0)
(1.00875 0.000209656 0)
(1.0077 0.00106975 0)
(1.00668 0.00260949 0)
(1.00596 0.00620307 0)
(0.983758 -0.00474039 0)
(1.01507 0.00399465 0)
(0.988317 -0.00474312 0)
(1.01356 0.00352959 0)
(0.994691 -0.00407942 0)
(1.01278 0.00307585 0)
(0.999475 -0.00317742 0)
(1.01116 0.00225878 0)
(1.00209 -0.00301579 0)
(1.01024 0.00195317 0)
(1.00457 -0.00262902 0)
(1.00947 0.00167558 0)
(1.00588 -0.00242779 0)
(1.00856 0.00123977 0)
(1.00677 -0.00198104 0)
(1.00821 0.000964372 0)
(1.00739 -0.00152818 0)
(1.00789 0.000560977 0)
(1.00747 -0.00131139 0)
(1.00743 0.000108956 0)
(1.00718 -0.00109608 0)
(1.00687 -0.000196324 0)
(1.00669 -0.000734062 0)
(1.00628 -0.000293205 0)
(1.00602 -0.000206761 0)
(1.00539 -0.000154957 0)
(1.00474 0.000749658 0)
(1.00381 0.000592335 0)
(1.00282 0.00409243 0)
(1.00239 0.00466704 0)
(0.990924 -0.00469653 0)
(1.00746 0.00390062 0)
(0.992799 -0.0046891 0)
(1.00631 0.00342209 0)
(0.99692 -0.00402637 0)
(1.00611 0.00296881 0)
(0.999845 -0.00311018 0)
(1.00534 0.00217445 0)
(1.00115 -0.00295088 0)
(1.00506 0.00185745 0)
(1.00263 -0.00255485 0)
(1.00485 0.00158431 0)
(1.00329 -0.00233417 0)
(1.00437 0.00114274 0)
(1.00372 -0.00188707 0)
(1.00429 0.000859731 0)
(1.00408 -0.00142731 0)
(1.00419 0.000463125 0)
(1.00408 -0.00120054 0)
(1.0039 2.29215e-05 0)
(1.00377 -0.00099454 0)
(1.00342 -0.000255532 0)
(1.00324 -0.000667996 0)
(1.00285 -0.0002835 0)
(1.00255 -0.000213509 0)
(1.00198 7.25492e-05 0)
(1.00128 0.000262158 0)
(1.00052 0.00185677 0)
(0.999608 0.00259446 0)
(0.999363 0.0102054 0)
(0.995269 -0.00464142 0)
(1.00292 0.00382186 0)
(0.995278 -0.00462519 0)
(1.00204 0.00332969 0)
(0.997783 -0.0039665 0)
(1.00217 0.00287379 0)
(0.999435 -0.0030411 0)
(1.00193 0.00209595 0)
(1 -0.00288119 0)
(1.0019 0.0017645 0)
(1.0009 -0.00247567 0)
(1.00188 0.00149029 0)
(1.00124 -0.00223434 0)
(1.00157 0.00104189 0)
(1.00139 -0.001785 0)
(1.00155 0.000748736 0)
(1.00159 -0.00132047 0)
(1.00152 0.000356059 0)
(1.00156 -0.00108157 0)
(1.00133 -7.26468e-05 0)
(1.00125 -0.000878899 0)
(1.00087 -0.0003301 0)
(1.00068 -0.000569168 0)
(1.00026 -0.000310268 0)
(0.999937 -0.000137177 0)
(0.999316 0.000119848 0)
(0.998733 0.000370698 0)
(0.997878 0.0020388 0)
(0.997527 0.00231888 0)
(0.996975 0.0100166 0)
(0.997696 -0.00457745 0)
(1.00042 0.00375024 0)
(0.996626 -0.00455187 0)
(0.999695 0.00324523 0)
(0.998129 -0.00389833 0)
(0.999964 0.00278332 0)
(0.999006 -0.00296751 0)
(1.00001 0.00201545 0)
(0.999207 -0.00280276 0)
(1.00003 0.00166792 0)
(0.999748 -0.00238662 0)
(1.00006 0.00138734 0)
(0.999908 -0.00212242 0)
(0.999807 0.000928744 0)
(0.999878 -0.00166425 0)
(0.99976 0.00061894 0)
(0.999942 -0.00119129 0)
(0.999758 0.000221237 0)
(0.999899 -0.00093309 0)
(0.999617 -0.000210366 0)
(0.999586 -0.000698039 0)
(0.999154 -0.000477867 0)
(0.998978 -0.000358489 0)
(0.998485 -0.000480211 0)
(0.998169 0.000178335 0)
(0.997487 -0.000152781 0)
(0.996943 0.00134796 0)
(0.996069 0.000752069 0)
(0.995901 0.00390994 0)
(0.995511 0.00263368 0)
(0.998974 -0.00450575 0)
(0.999107 0.00367796 0)
(0.997366 -0.004469 0)
(0.998466 0.00316196 0)
(0.9983 -0.00382063 0)
(0.998766 0.0026917 0)
(0.998736 -0.0028882 0)
(0.998965 0.00193024 0)
(0.998763 -0.00271644 0)
(0.998983 0.00156941 0)
(0.999085 -0.00229262 0)
(0.998999 0.00128489 0)
(0.999132 -0.0020115 0)
(0.998778 0.000825166 0)
(0.998979 -0.00155479 0)
(0.998704 0.000513703 0)
(0.998947 -0.0010937 0)
(0.998708 0.000135332 0)
(0.998889 -0.000852071 0)
(0.998599 -0.00025183 0)
(0.99857 -0.000653692 0)
(0.998127 -0.000450672 0)
(0.997917 -0.00036375 0)
(0.997411 -0.000376935 0)
(0.997045 0.000157944 0)
(0.996393 5.97138e-05 0)
(0.99576 0.00133142 0)
(0.995016 0.000998521 0)
(0.994523 0.00402657 0)
(0.994909 0.00165235 0)
(0.999617 -0.00442675 0)
(0.998443 0.00359946 0)
(0.997769 -0.00437584 0)
(0.997848 0.00307452 0)
(0.998393 -0.00373163 0)
(0.998145 0.00259336 0)
(0.998589 -0.00279944 0)
(0.998432 0.00183377 0)
(0.998538 -0.0026153 0)
(0.998432 0.00145777 0)
(0.998726 -0.00218007 0)
(0.99843 0.00116249 0)
(0.998708 -0.00187556 0)
(0.998229 0.000695774 0)
(0.998487 -0.00141098 0)
(0.998135 0.000369408 0)
(0.998397 -0.00094535 0)
(0.998135 -1.5138e-05 0)
(0.998332 -0.000691371 0)
(0.998038 -0.000389622 0)
(0.998011 -0.000492716 0)
(0.997552 -0.00055906 0)
(0.997331 -0.000202446 0)
(0.996797 -0.000430177 0)
(0.996427 0.000295586 0)
(0.99575 0.000140705 0)
(0.995141 0.0012454 0)
(0.994432 0.00164042 0)
(0.993954 0.00395232 0)
(0.994829 0.00611654 0)
(0.999925 -0.00434082 0)
(0.998126 0.00351215 0)
(0.997975 -0.00427222 0)
(0.997559 0.00298085 0)
(0.998434 -0.00363211 0)
(0.997848 0.00248797 0)
(0.998507 -0.00270326 0)
(0.998185 0.00173014 0)
(0.99842 -0.00250761 0)
(0.998169 0.00134495 0)
(0.998528 -0.00206678 0)
(0.998153 0.00104468 0)
(0.998478 -0.00174983 0)
(0.997972 0.000585623 0)
(0.998229 -0.00129247 0)
(0.99787 0.00026564 0)
(0.998107 -0.000854137 0)
(0.997865 -8.98334e-05 0)
(0.998034 -0.000637549 0)
(0.997771 -0.000401927 0)
(0.997709 -0.000480479 0)
(0.997274 -0.000482112 0)
(0.997014 -0.00026474 0)
(0.996496 -0.000208736 0)
(0.996098 0.000146072 0)
(0.99544 0.000565409 0)
(0.994854 0.000963864 0)
(0.994223 0.00243483 0)
(0.993987 0.00364815 0)
(0.994802 0.0103042 0)
(1.00006 -0.00424792 0)
(0.997992 0.00341404 0)
(0.99807 -0.0041566 0)
(0.997443 0.00287797 0)
(0.998442 -0.00351969 0)
(0.99773 0.00237087 0)
(0.998457 -0.00259458 0)
(0.998092 0.00161322 0)
(0.998355 -0.0023852 0)
(0.99806 0.00121805 0)
(0.998416 -0.00193584 0)
(0.998034 0.000909989 0)
(0.998354 -0.00160516 0)
(0.997875 0.000453895 0)
(0.998101 -0.00114776 0)
(0.997774 0.000137097 0)
(0.997966 -0.000731544 0)
(0.997758 -0.000199249 0)
(0.997888 -0.00053866 0)
(0.997656 -0.000462899 0)
(0.997563 -0.000402871 0)
(0.997142 -0.000498106 0)
(0.996868 -0.00017774 0)
(0.99635 -0.000210199 0)
(0.995967 0.000325336 0)
(0.995298 0.000566164 0)
(0.994787 0.00146299 0)
(0.994198 0.00236512 0)
(0.994473 0.00399126 0)
(0.995096 0.00645286 0)
(1.0001 -0.00414807 0)
(0.99795 0.00330427 0)
(0.998107 -0.00402853 0)
(0.997413 0.00276535 0)
(0.998434 -0.00339509 0)
(0.997702 0.00224304 0)
(0.99843 -0.00247649 0)
(0.998074 0.00148752 0)
(0.998319 -0.0022539 0)
(0.998027 0.00108468 0)
(0.99835 -0.00180044 0)
(0.997993 0.000775259 0)
(0.998287 -0.00146322 0)
(0.99786 0.000329707 0)
(0.998043 -0.00101895 0)
(0.997769 3.18214e-05 0)
(0.997899 -0.000629095 0)
(0.997743 -0.000279268 0)
(0.997811 -0.000467854 0)
(0.997631 -0.00048813 0)
(0.997476 -0.000356652 0)
(0.997112 -0.000481766 0)
(0.996778 -0.000114586 0)
(0.996329 -0.000194053 0)
(0.99589 0.000565527 0)
(0.995331 0.000509642 0)
(0.994776 0.00204223 0)
(0.994311 0.0022638 0)
(0.994264 0.00461292 0)
(0.995541 0.00288765 0)
(1.00011 -0.00404085 0)
(0.997952 0.00318159 0)
(0.998116 -0.00388672 0)
(0.99742 0.00264077 0)
(0.998422 -0.0032562 0)
(0.997714 0.00210103 0)
(0.99842 -0.00234452 0)
(0.998084 0.00134674 0)
(0.998306 -0.00210733 0)
(0.998016 0.000938949 0)
(0.998321 -0.00165484 0)
(0.997974 0.00062967 0)
(0.998265 -0.00131125 0)
(0.997864 0.000198591 0)
(0.998044 -0.000889758 0)
(0.997779 -7.63919e-05 0)
(0.997901 -0.000544806 0)
(0.997735 -0.000336074 0)
(0.997808 -0.000432784 0)
(0.997601 -0.000473417 0)
(0.997471 -0.000364053 0)
(0.997069 -0.000375036 0)
(0.996779 -0.000179119 0)
(0.996308 3.94771e-05 0)
(0.995916 0.000418584 0)
(0.995364 0.000973424 0)
(0.994891 0.00179005 0)
(0.994457 0.00306715 0)
(0.994425 0.004824 0)
(0.996205 0.00719552 0)
(1.00008 -0.00392681 0)
(0.99798 0.00304656 0)
(0.998107 -0.00373173 0)
(0.997452 0.00250591 0)
(0.998401 -0.00310609 0)
(0.997753 0.00194981 0)
(0.998408 -0.00220549 0)
(0.998118 0.00120242 0)
(0.998292 -0.00196068 0)
(0.998031 0.000799321 0)
(0.998292 -0.00151739 0)
(0.997983 0.000496439 0)
(0.998245 -0.00118162 0)
(0.997899 0.000101628 0)
(0.998047 -0.000801627 0)
(0.997825 -0.000135566 0)
(0.997905 -0.000533508 0)
(0.997764 -0.000313357 0)
(0.997803 -0.000487074 0)
(0.997611 -0.000357731 0)
(0.997461 -0.000476983 0)
(0.997071 -0.000172085 0)
(0.99678 -0.000332443 0)
(0.996322 0.000378015 0)
(0.995963 0.000166791 0)
(0.995442 0.00156991 0)
(0.995045 0.00142684 0)
(0.994722 0.00391792 0)
(0.994925 0.00491342 0)
(0.996433 0.011743 0)
(1.00005 -0.00380413 0)
(0.998026 0.00289548 0)
(0.998088 -0.00355964 0)
(0.997503 0.00235587 0)
(0.998373 -0.00293947 0)
(0.997814 0.00178191 0)
(0.998391 -0.00205092 0)
(0.998174 0.0010435 0)
(0.998271 -0.00179857 0)
(0.998069 0.000645033 0)
(0.998259 -0.00136264 0)
(0.998016 0.00034889 0)
(0.998223 -0.00104193 0)
(0.997955 -9.84368e-06 0)
(0.998051 -0.00068398 0)
(0.997889 -0.000208365 0)
(0.997915 -0.000464552 0)
(0.997809 -0.000352439 0)
(0.997808 -0.000435542 0)
(0.997634 -0.000376246 0)
(0.997464 -0.000388571 0)
(0.997083 -0.00022506 0)
(0.996801 -0.000140326 0)
(0.996354 0.000252948 0)
(0.996037 0.000617054 0)
(0.995532 0.0013692 0)
(0.995229 0.0022136 0)
(0.995033 0.00351492 0)
(0.995793 0.00497811 0)
(0.996869 0.00699613 0)
(1.00002 -0.00367411 0)
(0.998074 0.0027308 0)
(0.998073 -0.00337443 0)
(0.997559 0.00219456 0)
(0.998351 -0.00276153 0)
(0.997881 0.00160149 0)
(0.998379 -0.00188798 0)
(0.998238 0.000875413 0)
(0.998257 -0.00163082 0)
(0.998119 0.000484179 0)
(0.998232 -0.00121021 0)
(0.998062 0.000210675 0)
(0.998202 -0.000936206 0)
(0.998027 -0.000108384 0)
(0.998051 -0.000631805 0)
(0.99797 -0.000256218 0)
(0.997917 -0.000449706 0)
(0.997879 -0.00035408 0)
(0.997799 -0.000433104 0)
(0.997692 -0.000362471 0)
(0.997445 -0.000330711 0)
(0.997145 -0.000249583 0)
(0.996789 3.39115e-05 0)
(0.996457 0.000126937 0)
(0.996073 0.0010099 0)
(0.995725 0.00121348 0)
(0.995361 0.00293601 0)
(0.995247 0.00330345 0)
(0.99554 0.00514586 0)
(0.997416 0.002782 0)
(1 -0.00354157 0)
(0.998107 0.00255986 0)
(0.998077 -0.00318251 0)
(0.997595 0.00203539 0)
(0.998353 -0.00258419 0)
(0.997924 0.00143432 0)
(0.998393 -0.00174071 0)
(0.998272 0.000738336 0)
(0.998277 -0.00149486 0)
(0.998138 0.00038014 0)
(0.998246 -0.00111591 0)
(0.998069 0.000149481 0)
(0.998226 -0.000846968 0)
(0.998049 -0.000129398 0)
(0.998101 -0.00060071 0)
(0.997998 -0.000229825 0)
(0.997976 -0.000473276 0)
(0.997891 -0.000282562 0)
(0.997856 -0.000493011 0)
(0.997694 -0.000230067 0)
(0.997496 -0.000425279 0)
(0.997151 -2.91124e-05 0)
(0.996851 -0.000103626 0)
(0.996508 0.00049171 0)
(0.996199 0.000790813 0)
(0.995866 0.00175364 0)
(0.995594 0.0026401 0)
(0.995471 0.00426025 0)
(0.995721 0.00579943 0)
(0.998225 0.00771611 0)
(0.999988 -0.00338284 0)
(0.998143 0.00234409 0)
(0.998079 -0.00294392 0)
(0.997634 0.00181727 0)
(0.998351 -0.00234728 0)
(0.997971 0.00118882 0)
(0.998398 -0.00151473 0)
(0.998309 0.000499415 0)
(0.99829 -0.00126235 0)
(0.998165 0.000151615 0)
(0.998252 -0.00091059 0)
(0.998093 -6.71241e-05 0)
(0.998233 -0.000687784 0)
(0.998086 -0.000278507 0)
(0.998127 -0.00049249 0)
(0.99804 -0.000314236 0)
(0.998009 -0.000442473 0)
(0.997924 -0.000280708 0)
(0.997889 -0.000541092 0)
(0.99772 -0.000132699 0)
(0.997532 -0.000566378 0)
(0.997184 0.000237527 0)
(0.99691 -0.000336503 0)
(0.996578 0.00103859 0)
(0.99632 0.000438398 0)
(0.996031 0.0024898 0)
(0.995864 0.00211612 0)
(0.995859 0.00530614 0)
(0.996298 0.00624989 0)
(0.998132 0.013 0)
(0.999964 -0.00325612 0)
(0.998195 0.00217677 0)
(0.998071 -0.00275889 0)
(0.997693 0.00168506 0)
(0.998336 -0.0022012 0)
(0.998038 0.00106899 0)
(0.998386 -0.00142965 0)
(0.998367 0.000447537 0)
(0.998286 -0.0012312 0)
(0.998218 0.00016968 0)
(0.998245 -0.000968192 0)
(0.998134 2.88297e-05 0)
(0.998232 -0.000851363 0)
(0.998134 -9.14062e-05 0)
(0.998145 -0.000729029 0)
(0.998088 -8.35676e-05 0)
(0.99804 -0.000682336 0)
(0.99796 -7.56357e-05 0)
(0.997926 -0.000696176 0)
(0.997749 -3.92923e-06 0)
(0.997583 -0.000581459 0)
(0.997221 0.000221568 0)
(0.996999 -0.00012774 0)
(0.996656 0.000880932 0)
(0.996472 0.000929467 0)
(0.996188 0.0023068 0)
(0.996164 0.00297979 0)
(0.996331 0.00475925 0)
(0.99739 0.00577952 0)
(0.998414 0.00709085 0)
(0.999946 -0.00306104 0)
(0.99825 0.00190097 0)
(0.998072 -0.00245987 0)
(0.997753 0.00140312 0)
(0.998329 -0.00189409 0)
(0.99811 0.000756744 0)
(0.99838 -0.00113932 0)
(0.998429 0.00015157 0)
(0.998289 -0.000912306 0)
(0.998279 -0.000114305 0)
(0.998243 -0.000639458 0)
(0.998191 -0.000263134 0)
(0.998227 -0.000465516 0)
(0.9982 -0.000439157 0)
(0.998149 -0.000253 0)
(0.998161 -0.000542351 0)
(0.998038 -7.47667e-05 0)
(0.998039 -0.000676781 0)
(0.997922 7.1418e-05 0)
(0.997839 -0.000739832 0)
(0.997576 0.000388967 0)
(0.997341 -0.000669816 0)
(0.997017 0.00100236 0)
(0.996835 -0.000203745 0)
(0.996576 0.00221521 0)
(0.996491 0.00117724 0)
(0.99636 0.00443856 0)
(0.996509 0.00353572 0)
(0.996805 0.00649102 0)
(0.998916 0.00253601 0)
(0.999952 -0.00293051 0)
(0.998283 0.00171935 0)
(0.998103 -0.00226382 0)
(0.997782 0.00126977 0)
(0.998358 -0.00175403 0)
(0.998143 0.000648171 0)
(0.998413 -0.00108021 0)
(0.998449 0.00010963 0)
(0.998337 -0.000953011 0)
(0.998295 -3.50286e-05 0)
(0.998294 -0.000827317 0)
(0.998197 -4.29113e-05 0)
(0.998278 -0.000827853 0)
(0.998211 -5.91006e-05 0)
(0.998208 -0.000795184 0)
(0.998173 3.0451e-05 0)
(0.998104 -0.000839373 0)
(0.998046 0.000160979 0)
(0.997994 -0.00095461 0)
(0.997858 0.000445745 0)
(0.997659 -0.000951188 0)
(0.997377 0.000979423 0)
(0.997131 -0.000637773 0)
(0.996929 0.00190469 0)
(0.996774 0.000287128 0)
(0.996689 0.00346693 0)
(0.996693 0.00197236 0)
(0.996853 0.00621402 0)
(0.997216 0.00607868 0)
(0.999126 0.0136016 0)
(0.999947 -0.00272979 0)
(0.998338 0.00144018 0)
(0.998119 -0.00196842 0)
(0.997836 0.00101465 0)
(0.998364 -0.00147487 0)
(0.998208 0.000394561 0)
(0.998418 -0.000854186 0)
(0.998496 -0.000104819 0)
(0.998359 -0.000771246 0)
(0.998341 -0.000193314 0)
(0.99832 -0.000697391 0)
(0.998236 -0.000177962 0)
(0.998303 -0.00067999 0)
(0.998249 -0.00022233 0)
(0.998246 -0.000597995 0)
(0.998205 -0.000235391 0)
(0.998151 -0.000534255 0)
(0.998072 -0.00026057 0)
(0.998063 -0.000488661 0)
(0.997881 -0.000160692 0)
(0.997762 -0.000290313 0)
(0.997425 0.00019613 0)
(0.997282 0.000284363 0)
(0.99703 0.00102524 0)
(0.996984 0.00145163 0)
(0.996858 0.00259087 0)
(0.997067 0.00340541 0)
(0.997484 0.00480008 0)
(0.998703 0.00579094 0)
(0.999327 0.00719916 0)
(0.999953 -0.00258359 0)
(0.998393 0.00122512 0)
(0.99815 -0.00174094 0)
(0.997891 0.000842064 0)
(0.998382 -0.00129058 0)
(0.998274 0.000248469 0)
(0.998432 -0.000722424 0)
(0.998552 -0.000184998 0)
(0.998383 -0.000660282 0)
(0.998402 -0.000245022 0)
(0.998341 -0.000592109 0)
(0.998299 -0.000237456 0)
(0.998314 -0.000511659 0)
(0.998324 -0.000353104 0)
(0.998246 -0.000276582 0)
(0.998291 -0.000487976 0)
(0.998142 -3.29601e-05 0)
(0.998166 -0.000680515 0)
(0.998049 0.000266092 0)
(0.998003 -0.000814762 0)
(0.997758 0.000799447 0)
(0.997588 -0.000813114 0)
(0.997323 0.00162421 0)
(0.997261 -0.00034473 0)
(0.997138 0.00300176 0)
(0.997211 0.00116282 0)
(0.997243 0.0053299 0)
(0.997501 0.00333052 0)
(0.997841 0.00646432 0)
(0.999846 0.000917501 0)
(1.00001 -0.00234875 0)
(0.998394 0.000900691 0)
(0.998243 -0.00142285 0)
(0.99788 0.00057116 0)
(0.998466 -0.00101911 0)
(0.998271 -1.71399e-05 0)
(0.99852 -0.000557851 0)
(0.998528 -0.000329708 0)
(0.998486 -0.000591577 0)
(0.998378 -0.000266346 0)
(0.99845 -0.000679521 0)
(0.998276 -0.000126395 0)
(0.998414 -0.000811961 0)
(0.998311 -3.07352e-05 0)
(0.998349 -0.000918836 0)
(0.998279 0.000203496 0)
(0.998239 -0.0010933 0)
(0.998168 0.000476903 0)
(0.998152 -0.00123601 0)
(0.99803 0.000855033 0)
(0.997862 -0.00113108 0)
(0.997649 0.00134562 0)
(0.99746 -0.000650851 0)
(0.997395 0.00216204 0)
(0.997384 0.000410168 0)
(0.99748 0.00367748 0)
(0.997649 0.00245699 0)
(0.997874 0.00686685 0)
(0.998147 0.0073325 0)
(0.999966 0.0135377 0)
(1.00003 -0.0022525 0)
(0.998444 0.000770698 0)
(0.998295 -0.0012933 0)
(0.997916 0.000513995 0)
(0.998504 -0.000943146 0)
(0.99831 -3.10257e-05 0)
(0.998567 -0.000601695 0)
(0.99855 -0.000283429 0)
(0.998551 -0.000680379 0)
(0.998394 -0.000191476 0)
(0.998518 -0.000758755 0)
(0.998284 -6.9701e-05 0)
(0.998487 -0.000853012 0)
(0.998307 7.75394e-06 0)
(0.998438 -0.000935246 0)
(0.998263 0.000241797 0)
(0.998347 -0.00109803 0)
(0.998142 0.000537611 0)
(0.998281 -0.00126389 0)
(0.998018 0.000982224 0)
(0.99802 -0.00120919 0)
(0.99768 0.00159213 0)
(0.997661 -0.000764647 0)
(0.99749 0.002554 0)
(0.997646 0.000211345 0)
(0.997706 0.00390645 0)
(0.998208 0.00187679 0)
(0.998827 0.0065694 0)
(0.999839 0.00666468 0)
(0.999389 0.0134784 0)
(0.99999 -0.00198145 0)
(0.998565 0.00038668 0)
(0.998296 -0.00087299 0)
(0.998023 0.000172333 0)
(0.99849 -0.000528034 0)
(0.99842 -0.000362489 0)
(0.998561 -0.000196451 0)
(0.998642 -0.00065259 0)
(0.998558 -0.000213754 0)
(0.99849 -0.000674376 0)
(0.998528 -0.000141974 0)
(0.998383 -0.000746269 0)
(0.998487 1.54974e-05 0)
(0.998416 -0.000946012 0)
(0.998446 0.000293239 0)
(0.998367 -0.00110314 0)
(0.998354 0.000515273 0)
(0.998247 -0.00120646 0)
(0.998306 0.00076699 0)
(0.998137 -0.00114664 0)
(0.998067 0.00117602 0)
(0.997824 -0.000832903 0)
(0.997761 0.00181678 0)
(0.997689 -2.81004e-05 0)
(0.997809 0.00294364 0)
(0.997959 0.00116156 0)
(0.998467 0.00405761 0)
(0.99925 0.00163386 0)
(1.00031 0.00345659 0)
(0.99988 9.1704e-05 0)
(0.999969 -0.00184594 0)
(0.998682 0.000203134 0)
(0.998329 -0.000839514 0)
(0.998111 0.000166403 0)
(0.998508 -0.000680741 0)
(0.998509 -0.00021986 0)
(0.998588 -0.000494213 0)
(0.998718 -0.00038736 0)
(0.998595 -0.000568605 0)
(0.998568 -0.000351325 0)
(0.998558 -0.000511045 0)
(0.998468 -0.000410024 0)
(0.998509 -0.000380007 0)
(0.99851 -0.000573576 0)
(0.998462 -0.000180557 0)
(0.998465 -0.000717219 0)
(0.998377 2.70613e-05 0)
(0.998354 -0.0008005 0)
(0.998338 0.000292088 0)
(0.998267 -0.000714113 0)
(0.998129 0.000768263 0)
(0.997987 -0.00031179 0)
(0.997888 0.00150313 0)
(0.997924 0.000583452 0)
(0.997992 0.00262182 0)
(0.99816 0.00176876 0)
(0.998382 0.00340802 0)
(0.998792 0.00151094 0)
(0.999389 0.00185139 0)
(1.00162 0.000152359 0)
(0.99999 -0.00169526 0)
(0.998749 -1.96772e-06 0)
(0.998411 -0.000648246 0)
(0.998148 7.03856e-05 0)
(0.998578 -0.000272558 0)
(0.99855 -0.000466456 0)
(0.998665 -0.00016761 0)
(0.998747 -0.000663313 0)
(0.998682 -0.000275076 0)
(0.998606 -0.00060224 0)
(0.998641 -0.000276046 0)
(0.99851 -0.000568942 0)
(0.998585 -0.000227656 0)
(0.998556 -0.000612346 0)
(0.998543 -0.00013688 0)
(0.998515 -0.000554869 0)
(0.998455 -0.000132039 0)
(0.998412 -0.000450749 0)
(0.998434 -4.43893e-05 0)
(0.998353 -0.000209084 0)
(0.998257 0.000325894 0)
(0.998113 0.000306448 0)
(0.998072 0.00100075 0)
(0.998093 0.00116669 0)
(0.998214 0.00194711 0)
(0.998305 0.00231726 0)
(0.998489 0.00315886 0)
(0.998929 0.00381967 0)
(1.00006 0.00486772 0)
(1.00385 0.00608267 0)
(0.999992 -0.00139129 0)
(0.998865 -0.00034127 0)
(0.99848 -0.000403253 0)
(0.998243 -0.000113857 0)
(0.998606 -0.000268539 0)
(0.99862 -0.000396821 0)
(0.998712 -0.000324004 0)
(0.99881 -0.000436739 0)
(0.998744 -0.000600243 0)
(0.998672 -0.000205676 0)
(0.998703 -0.000770341 0)
(0.998579 -4.88411e-06 0)
(0.998644 -0.000914461 0)
(0.99863 0.000143783 0)
(0.99861 -0.00102387 0)
(0.998574 0.000412436 0)
(0.998535 -0.00118472 0)
(0.998481 0.000681582 0)
(0.998523 -0.00113543 0)
(0.998457 0.00102788 0)
(0.998377 -0.000714006 0)
(0.998258 0.00158819 0)
(0.998228 -2.03797e-05 0)
(0.998287 0.00235189 0)
(0.998431 0.00090055 0)
(0.998634 0.00343677 0)
(0.998968 0.00246124 0)
(0.99947 0.00634027 0)
(1.00026 0.00738903 0)
(1.00294 0.012424 0)
(0.999972 -0.00151709 0)
(0.998977 -0.000221939 0)
(0.998541 -0.000674976 0)
(0.998306 0.000180783 0)
(0.998668 -0.000449716 0)
(0.998689 -0.000171124 0)
(0.998778 -0.000484183 0)
(0.998858 -0.000337756 0)
(0.998831 -0.000665532 0)
(0.998725 -0.000245319 0)
(0.998791 -0.000701312 0)
(0.998625 -0.000203856 0)
(0.998734 -0.000694541 0)
(0.998668 -0.000223294 0)
(0.998719 -0.000667638 0)
(0.998611 -0.000158242 0)
(0.998644 -0.000649987 0)
(0.998541 -3.17619e-05 0)
(0.998651 -0.000423161 0)
(0.998561 0.00029568 0)
(0.998534 0.000113783 0)
(0.998394 0.000893004 0)
(0.998418 0.000874105 0)
(0.998451 0.00179929 0)
(0.998676 0.00192382 0)
(0.998882 0.00286538 0)
(0.999574 0.00304308 0)
(1.0007 0.00378952 0)
(1.00232 0.00390275 0)
(1.003 0.00506239 0)
(0.999941 -0.000887131 0)
(0.999133 -0.000904877 0)
(0.998604 -9.59492e-05 0)
(0.998463 -0.000378332 0)
(0.998661 0.000262918 0)
(0.998813 -0.000836337 0)
(0.998784 0.000253817 0)
(0.998982 -0.00113564 0)
(0.998849 0.000206512 0)
(0.998855 -0.00116719 0)
(0.998805 0.000349883 0)
(0.998763 -0.0012739 0)
(0.99874 0.000543802 0)
(0.998814 -0.00142735 0)
(0.998724 0.000732653 0)
(0.998752 -0.00145721 0)
(0.998667 0.000849074 0)
(0.998697 -0.00136362 0)
(0.998706 0.00107564 0)
(0.998744 -0.00105658 0)
(0.998637 0.00152453 0)
(0.998612 -0.00041647 0)
(0.998593 0.00228053 0)
(0.998739 0.000686155 0)
(0.998876 0.00341578 0)
(0.999133 0.00177676 0)
(0.999389 0.00407828 0)
(0.999866 0.00127704 0)
(1.00079 0.00206721 0)
(1.00418 -0.000494749 0)
(0.999977 -0.00141875 0)
(0.999187 -0.000204702 0)
(0.998743 -0.000908051 0)
(0.998483 0.000539662 0)
(0.998771 -0.000838484 0)
(0.998835 0.000387436 0)
(0.998889 -0.000988571 0)
(0.999001 0.000216777 0)
(0.998967 -0.00119635 0)
(0.998895 0.000281967 0)
(0.998914 -0.00116263 0)
(0.998807 0.000284646 0)
(0.998845 -0.00105801 0)
(0.998858 0.000257739 0)
(0.998844 -0.000952721 0)
(0.998796 0.000365959 0)
(0.998789 -0.000898735 0)
(0.998756 0.000494407 0)
(0.998842 -0.000643617 0)
(0.998837 0.000797992 0)
(0.998813 -0.000121438 0)
(0.998767 0.00140992 0)
(0.998843 0.000724822 0)
(0.99896 0.00240826 0)
(0.99913 0.00192638 0)
(0.999275 0.00355628 0)
(0.999512 0.00296735 0)
(1.00017 0.00438176 0)
(1.00189 0.00443823 0)
(1.00632 0.00766057 0)
(0.999989 -0.000516927 0)
(0.999284 -0.00130047 0)
(0.998868 -2.75525e-05 0)
(0.998574 -0.000510056 0)
(0.998835 0.000483506 0)
(0.998903 -0.000815022 0)
(0.998952 0.000406462 0)
(0.999062 -0.00109603 0)
(0.999045 0.00020465 0)
(0.998965 -0.00107075 0)
(0.998992 0.00023474 0)
(0.998886 -0.00105701 0)
(0.99892 0.000313332 0)
(0.998941 -0.00104582 0)
(0.998926 0.000363409 0)
(0.998873 -0.000920907 0)
(0.998877 0.000391314 0)
(0.998866 -0.000756504 0)
(0.998961 0.000642415 0)
(0.998988 -0.000370537 0)
(0.99898 0.00114613 0)
(0.998962 0.000329269 0)
(0.999066 0.00190829 0)
(0.999227 0.00130632 0)
(0.99943 0.0030591 0)
(0.999612 0.0028809 0)
(0.999873 0.00499834 0)
(1.00056 0.00522834 0)
(1.0023 0.00675407 0)
(1.00681 0.0051708 0)
(0.999989 -0.00107892 0)
(0.999387 -0.000228419 0)
(0.998994 -0.00112209 0)
(0.998688 0.000640804 0)
(0.998904 -0.000955547 0)
(0.998979 0.000756734 0)
(0.999015 -0.00130558 0)
(0.999128 0.000625351 0)
(0.999131 -0.0017204 0)
(0.999054 0.000764261 0)
(0.999075 -0.00172866 0)
(0.998975 0.000809945 0)
(0.999 -0.00161911 0)
(0.999023 0.000816103 0)
(0.999017 -0.00149263 0)
(0.99896 0.000907954 0)
(0.998974 -0.00129156 0)
(0.998975 0.00102379 0)
(0.999084 -0.000891949 0)
(0.999133 0.00132832 0)
(0.999151 -0.000333637 0)
(0.999156 0.00192934 0)
(0.999286 0.000513458 0)
(0.999504 0.00281459 0)
(0.999811 0.00165272 0)
(1.00015 0.00422936 0)
(1.00055 0.00396914 0)
(1.00104 0.00818416 0)
(1.00195 0.00959244 0)
(1.00528 0.0137195 0)
(0.99992 -0.000578055 0)
(0.999476 -0.00101261 0)
(0.99903 -0.000385548 0)
(0.998779 -0.000239198 0)
(0.998933 7.6939e-05 0)
(0.999038 -0.000309188 0)
(0.999027 -0.000111087 0)
(0.999172 -0.000586017 0)
(0.999172 -0.000447917 0)
(0.999125 -0.000527081 0)
(0.999115 -0.000415352 0)
(0.999058 -0.000505047 0)
(0.999041 -0.000326307 0)
(0.99911 -0.000457493 0)
(0.99907 -0.000238023 0)
(0.999056 -0.000298301 0)
(0.999036 -9.17964e-05 0)
(0.999103 -0.000102779 0)
(0.999179 0.000285314 0)
(0.99928 0.000327591 0)
(0.999299 0.000791097 0)
(0.999357 0.00098785 0)
(0.999501 0.00163854 0)
(0.999748 0.00207044 0)
(1.00009 0.00289476 0)
(1.00062 0.00323832 0)
(1.00162 0.00378398 0)
(1.00306 0.00385317 0)
(1.00486 0.00416572 0)
(1.00459 0.00359748 0)
(0.999839 -0.000483545 0)
(0.99973 -0.000855105 0)
(0.999093 -0.000518159 0)
(0.999046 -0.000193273 0)
(0.998919 -7.06381e-05 0)
(0.999245 -0.000219343 0)
(0.999008 -0.000199848 0)
(0.999358 -0.000443815 0)
(0.999181 -0.000459913 0)
(0.999329 -0.000463051 0)
(0.999129 -0.000362633 0)
(0.999252 -0.000497553 0)
(0.999066 -0.000231143 0)
(0.99929 -0.000461219 0)
(0.999116 -0.000130382 0)
(0.999232 -0.000294556 0)
(0.999094 5.1392e-05 0)
(0.999305 -9.81765e-05 0)
(0.999282 0.000397343 0)
(0.999506 0.000374604 0)
(0.999441 0.000873418 0)
(0.99965 0.000973838 0)
(0.999748 0.00151266 0)
(1.00017 0.00168808 0)
(1.00035 0.00231671 0)
(1.0007 0.00270094 0)
(1.00087 0.00370311 0)
(1.0013 0.00432981 0)
(1.00174 0.00540096 0)
(1.00483 0.00592012 0)
(0.99991 -0.000825052 0)
(0.999627 -0.000344979 0)
(0.999233 -0.000917937 0)
(0.998982 0.000198595 0)
(0.999061 -0.000506157 0)
(0.999167 0.000305613 0)
(0.999126 -0.000670531 0)
(0.999278 3.12258e-05 0)
(0.999301 -0.001008 0)
(0.999287 -7.72407e-07 0)
(0.999241 -0.000951022 0)
(0.99923 -8.44837e-06 0)
(0.999179 -0.000809002 0)
(0.999279 7.81874e-05 0)
(0.999238 -0.000685185 0)
(0.999247 0.000266983 0)