/*--------------------------------*- C++ -*----------------------------------*\
| =========                 |                                                 |
| \\      /  F ield         | OpenFOAM: The Open Source CFD Toolbox           |
|  \\    /   O peration     | Version:  v2006                                 |
|   \\  /    A nd           | Website:  www.openfoam.com                      |
|    \\/     M anipulation  |                                                 |
\*---------------------------------------------------------------------------*/
FoamFile
{
    version     2.0;
    format      ascii;
    class       volScalarField;
    location    "1.7";
    object      p;
}
// * * * * * * * * * * * * * * * * * * * * * * * * * * * * * * * * * * * * * //

dimensions      [0 2 -2 0 0 0 0];


internalField   nonuniform List<scalar> 
26400
(
-5.14242e-09
0.00220962
0.00207221
0.00229146
0.00171659
0.00199716
0.00162925
0.00195169
0.00165124
0.00196781
0.00171654
0.00202064
0.0018085
0.00210833
0.00193373
0.00224334
0.00211441
0.00245426
0.00239218
0.00279043
0.00282488
0.00332026
0.00349882
0.00415298
0.00455516
0.00548367
0.00629305
0.00786425
0.00960819
0.0122411
3.05414e-07
0.00220968
0.00207267
0.00229149
0.00171726
0.00199717
0.00163003
0.00195164
0.00165215
0.00196769
0.0017176
0.00202041
0.00180974
0.00210792
0.00193521
0.00224263
0.00211624
0.00245304
0.00239452
0.00278823
0.00282799
0.00331583
0.00350337
0.00414243
0.00456357
0.00545066
0.00631238
0.00772045
0.00959695
0.0115535
1.26745e-06
0.00220997
0.00207358
0.00229162
0.00171852
0.00199712
0.00163151
0.00195145
0.00165391
0.00196734
0.00171966
0.00201983
0.00181214
0.00210699
0.00193805
0.00224119
0.00211961
0.00245082
0.00239853
0.00278478
0.00283268
0.00331019
0.00350871
0.00413262
0.00457008
0.00543217
0.00630838
0.00764196
0.00948066
0.0108942
3.37941e-06
0.00221083
0.00207483
0.00229208
0.00172015
0.00199721
0.00163341
0.00195133
0.00165615
0.00196699
0.00172224
0.00201917
0.0018151
0.00210587
0.00194145
0.00223938
0.00212354
0.00244798
0.00240313
0.00278028
0.00283799
0.00330296
0.00351456
0.00412004
0.00457569
0.00540316
0.00630872
0.00751864
0.00925497
0.0103412
7.13128e-06
0.00221214
0.0020764
0.00229274
0.00172208
0.00199733
0.00163563
0.00195115
0.00165871
0.00196649
0.00172513
0.00201823
0.00181835
0.0021043
0.00194515
0.00223693
0.00212778
0.00244423
0.00240802
0.00277452
0.00284348
0.00329409
0.0035202
0.00410531
0.00457863
0.00537468
0.00627668
0.00742783
0.00890662
0.00989309
1.26956e-05
0.00221355
0.00207829
0.00229329
0.00172426
0.00199719
0.00163804
0.00195063
0.00166147
0.00196556
0.00172822
0.00201675
0.00182184
0.00210205
0.00194914
0.00223362
0.00213236
0.00243942
0.00241325
0.00276757
0.00284906
0.00328407
0.00352529
0.00409217
0.00457754
0.00536273
0.00621027
0.00735146
0.00852425
0.00934188
1.99118e-05
0.00221479
0.00208042
0.00229353
0.00172662
0.0019966
0.00164059
0.00194961
0.00166437
0.00196408
0.00173151
0.00201462
0.00182562
0.00209904
0.00195356
0.00222938
0.00213751
0.00243347
0.00241913
0.00275926
0.00285516
0.00327225
0.00353048
0.00407585
0.00457618
0.00531953
0.00618419
0.00718064
0.00836441
0.00892943
2.84439e-05
0.00221572
0.00208278
0.00229336
0.00172917
0.00199551
0.0016433
0.00194807
0.0016675
0.00196203
0.00173512
0.00201189
0.00182984
0.00209532
0.00195855
0.00222427
0.00214334
0.00242647
0.00242567
0.00274974
0.00286167
0.00325844
0.00353494
0.0040581
0.00457384
0.005284
0.00613004
0.00701695
0.0080425
0.00848563
3.79522e-05
0.00221637
0.00208539
0.00229283
0.00173198
0.00199394
0.00164625
0.00194602
0.00167097
0.00195946
0.00173918
0.00200854
0.00183462
0.00209088
0.00196421
0.00221831
0.00214983
0.00241855
0.00243266
0.00273948
0.00286817
0.00324623
0.00353669
0.00404312
0.00455234
0.00528161
0.00600904
0.00691716
0.00740108
0.00799574
4.81919e-05
0.0022168
0.00208827
0.00229201
0.00173515
0.00199193
0.00164954
0.00194347
0.0016749
0.00195632
0.00174382
0.00200453
0.00184011
0.00208562
0.00197067
0.00221134
0.00215714
0.00240942
0.00244027
0.00272733
0.00287508
0.00323081
0.00353892
0.00402227
0.00454339
0.00523878
0.00593763
0.00678676
0.00708242
0.00745037
5.90342e-05
0.00221707
0.00209147
0.00229095
0.00173877
0.0019895
0.00165326
0.0019404
0.00167938
0.00195257
0.00174912
0.00199979
0.00184635
0.0020795
0.00197791
0.00220341
0.00216505
0.00239939
0.00244815
0.0027147
0.00288127
0.00321507
0.00353989
0.00399845
0.00453255
0.00516873
0.00590556
0.00662125
0.00716567
0.00682933
7.04462e-05
0.00221717
0.00209504
0.00228969
0.00174294
0.00198663
0.00165748
0.00193675
0.00168447
0.00194814
0.00175516
0.00199424
0.00185339
0.00207245
0.00198592
0.00219451
0.00217345
0.00238845
0.00245608
0.00270175
0.00288611
0.00319971
0.00353766
0.00397432
0.00451226
0.00511342
0.00583782
0.00644798
0.00700683
0.0060897
8.24582e-05
0.00221707
0.002099
0.0022882
0.00174774
0.00198328
0.00166226
0.00193245
0.00169026
0.00194295
0.00176198
0.00198783
0.00186122
0.00206449
0.00199457
0.00218481
0.00218212
0.00237672
0.00246352
0.00268883
0.00288894
0.00318492
0.00353214
0.00395275
0.00447945
0.00506938
0.00572837
0.00626606
0.0065465
0.00567417
9.51445e-05
0.00221667
0.0021034
0.00228647
0.00175326
0.00197939
0.00166765
0.00192742
0.00169677
0.00193694
0.00176961
0.00198057
0.00186979
0.00205576
0.00200364
0.00217461
0.00219067
0.00236551
0.00246961
0.00267677
0.00288869
0.0031711
0.00351773
0.00393878
0.00443572
0.00501995
0.00560707
0.00607687
0.00586142
0.00508765
0.000108613
0.00221583
0.00210826
0.00228445
0.0017596
0.0019749
0.00167372
0.00192157
0.00170409
0.00193005
0.00177807
0.0019724
0.00187906
0.00204625
0.00201304
0.00216382
0.00219903
0.00235436
0.00247431
0.00266508
0.00288666
0.0031561
0.00350511
0.00390112
0.00440008
0.00493402
0.00549259
0.00590697
0.00593832
0.00468474
0.000123001
0.00221439
0.00211362
0.00228208
0.00176687
0.00196974
0.00168053
0.00191483
0.00171222
0.00192224
0.00178734
0.00196337
0.00188885
0.00203616
0.00202241
0.00215301
0.00220641
0.00234395
0.00247682
0.00265459
0.00288179
0.00314061
0.00349261
0.00386278
0.0043581
0.00483554
0.00536314
0.00569441
0.00576809
0.0039501
0.000138467
0.00221214
0.0021195
0.00227933
0.00177517
0.00196387
0.0016881
0.00190718
0.00172111
0.00191357
0.00179725
0.00195375
0.00189879
0.00202623
0.00203095
0.00214364
0.00221155
0.00233571
0.00247549
0.00264695
0.00287075
0.00312879
0.00345955
0.00383942
0.00428738
0.00475472
0.00518725
0.00542837
0.00524772
0.00370374
0.000155216
0.00220882
0.00212595
0.00227613
0.0017846
0.00195723
0.00169643
0.00189856
0.00173072
0.0019041
0.00180768
0.00194373
0.00190856
0.00201683
0.00203835
0.00213576
0.00221432
0.00232935
0.00247142
0.00264029
0.00285737
0.00312031
0.0034222
0.00380734
0.00420808
0.00466376
0.00500545
0.00512017
0.00438725
0.00319853
0.000173472
0.00220416
0.00213299
0.00227243
0.00179524
0.00194979
0.00170554
0.00188896
0.00174097
0.00189384
0.00181846
0.00193344
0.00191775
0.00200721
0.00204437
0.00212874
0.00221528
0.00232277
0.00246727
0.00262987
0.00284664
0.00309242
0.00340153
0.00374834
0.0041365
0.0045227
0.00484195
0.00496293
0.00463083
0.00285332
0.000193425
0.00219787
0.00214057
0.00226826
0.00180712
0.00194166
0.00171525
0.00187867
0.00175147
0.00188346
0.00182883
0.00192565
0.00192598
0.0020004
0.00204829
0.00212368
0.00221396
0.00231708
0.00246111
0.00261918
0.00283653
0.00306687
0.0033763
0.0036795
0.00405287
0.00436596
0.00465525
0.0047251
0.00449858
0.00202274
0.000215537
0.00218952
0.00214878
0.00226346
0.00182042
0.00193264
0.00172566
0.00186738
0.00176237
0.00187226
0.0018388
0.00191324
0.00193383
0.00199342
0.00205071
0.00211946
0.00221032
0.00231244
0.00245019
0.00260927
0.00281443
0.00304958
0.00332807
0.00362731
0.00394528
0.00422422
0.00439908
0.0043613
0.00392802
0.0021093
0.000239805
0.00217883
0.00215744
0.00225825
0.00183495
0.00192329
0.00173616
0.00185618
0.00177257
0.00186339
0.00184688
0.00190934
0.00193667
0.00199266
0.00204685
0.00212246
0.00219989
0.00231738
0.00243049
0.00261303
0.002775
0.00303625
0.00325264
0.00357316
0.00382054
0.00408779
0.00412904
0.00390759
0.00285717
0.00175487
0.000266932
0.00216526
0.00216662
0.00225247
0.00185089
0.00191339
0.0017469
0.00184437
0.00178231
0.00185398
0.00185531
0.00190234
0.00194083
0.00198719
0.00204933
0.00211405
0.00220295
0.00230056
0.00243511
0.0025793
0.0027746
0.0029747
0.00323004
0.00346707
0.00370992
0.00385735
0.0039207
0.00379841
0.0034563
0.00148871
0.000297143
0.00214844
0.00217615
0.00224618
0.00186816
0.00190314
0.00175755
0.00183203
0.00179059
0.00184363
0.00186181
0.00189666
0.00194352
0.00198236
0.00204971
0.00210724
0.00219996
0.00228781
0.00242664
0.00256295
0.0027547
0.00293881
0.00317677
0.00337859
0.00357885
0.00366577
0.00365369
0.00345712
0.00309556
0.00122185
0.000330518
0.00212816
0.00218568
0.00223985
0.0018862
0.00189415
0.00176717
0.00182383
0.0017952
0.0018432
0.00186062
0.00190168
0.00193656
0.00199127
0.00203665
0.00211914
0.00217826
0.00230227
0.00238162
0.00256882
0.00268789
0.00292799
0.00306361
0.00331187
0.00341919
0.00353078
0.00332996
0.00285643
0.001631
0.000935712
0.00036775
0.00210386
0.00219515
0.00223326
0.0019051
0.00188533
0.00177665
0.00181387
0.00179996
0.00183706
0.00186355
0.00189609
0.00194123
0.00198113
0.00204785
0.00209998
0.0021952
0.00227088
0.00240382
0.00251096
0.00268482
0.00284093
0.00303378
0.00317269
0.00327671
0.0032654
0.00315608
0.00292263
0.00253742
0.000678365
0.000409544
0.00207508
0.0022044
0.00222638
0.00192459
0.00187542
0.00178504
0.0018056
0.00180245
0.00183463
0.00186386
0.00189476
0.00193944
0.00197378
0.00204431
0.00208844
0.00219006
0.00224672
0.00239733
0.00247714
0.00267831
0.00277334
0.0029822
0.00304074
0.00312459
0.00300405
0.00283605
0.00255122
0.00228571
0.000493456
0.000454849
0.00204298
0.00221228
0.00222155
0.00194348
0.00187248
0.00178791
0.00180406
0.00179579
0.0018435
0.00185149
0.0019126
0.00192027
0.002006
0.00200941
0.00212429
0.00213964
0.00228496
0.00232706
0.00249942
0.00257586
0.00275796
0.00285085
0.00297315
0.00294579
0.00280593
0.00234937
0.00162004
0.000632318
0.00100264
0.000504956
0.00200582
0.0022195
0.00221581
0.00196566
0.0018675
0.00179481
0.00179638
0.00179829
0.00183783
0.00185559
0.00190507
0.00192344
0.00199136
0.00200969
0.00210838
0.00213619
0.00226325
0.00231246
0.00246704
0.00254172
0.00270237
0.00276889
0.00286444
0.00281039
0.002643
0.00211739
0.001285
0.000212163
0.000653716
0.000561293
0.00196133
0.00222417
0.00220778
0.0019846
0.00186559
0.00179971
0.00178954
0.00180142
0.00183043
0.00186414
0.00189356
0.00193712
0.00197376
0.0020305
0.00207947
0.00215304
0.00222162
0.00231652
0.00240799
0.0025149
0.00260971
0.00269104
0.00271059
0.00268341
0.00252088
0.00225508
0.00182481
0.00123124
-0.000906387
0.000620685
0.00192577
0.0022217
0.0022152
0.00199961
0.00186836
0.00180072
0.00178506
0.00180057
0.00182603
0.00186658
0.00188749
0.00194043
0.00196411
0.00203412
0.00206179
0.00215035
0.00219298
0.00229856
0.00235936
0.00246458
0.00252507
0.00259
0.00259038
0.00254693
0.00242771
0.00222885
0.00173482
0.000638035
-0.00310969
0.000688027
0.00187183
0.00222108
0.00218871
0.00202787
0.00187378
0.00180713
0.0017818
0.00180019
0.00182415
0.00186248
0.00188873
0.00193116
0.00196769
0.00201877
0.00207004
0.00212846
0.00219171
0.00226
0.00233033
0.00239844
0.00245019
0.00249496
0.00248066
0.00239678
0.00218526
0.00180865
0.00125742
0.000459151
-0.0021483
0.000753568
0.00184047
0.00220116
0.00221533
0.0020232
0.00189209
0.00179589
0.00179673
0.0017796
0.00184235
0.0018371
0.00191216
0.0019026
0.00199263
0.00198084
0.0020814
0.00208506
0.00217986
0.00220231
0.00228454
0.00231356
0.00237042
0.00239077
0.00238315
0.00223961
0.00200272
0.00129141
9.42264e-05
-0.00155826
-0.00229749
0.000832712
0.00179008
0.00218794
0.00217674
0.00206378
0.00189145
0.00181816
0.00178106
0.00179712
0.00182136
0.00185745
0.00188829
0.00192627
0.00196657
0.00200762
0.00205124
0.00209358
0.00213345
0.0021769
0.00221242
0.0022476
0.00226506
0.0022658
0.00221282
0.00209054
0.00186318
0.00152032
0.0010361
9.45884e-05
-0.00314838
0.000903856
0.00176302
0.0021555
0.00219374
0.00206311
0.0019093
0.00182047
0.00178356
0.00179087
0.00181678
0.00185126
0.00188163
0.0019185
0.0019552
0.00199317
0.0020339
0.00207244
0.00211136
0.00214091
0.00215836
0.00217012
0.00215045
0.0021211
0.00204388
0.00194519
0.00177542
0.0015024
0.000785747
-0.000903908
-0.00528302
0.000983257
0.00173183
0.00211856
0.00217809
0.00207929
0.00192184
0.00183264
0.00178708
0.00179546
0.00181348
0.00184933
0.00187574
0.00191281
0.00195081
0.00198757
0.0020255
0.0020564
0.00207362
0.00209241
0.00209026
0.00208047
0.00203753
0.00197633
0.00186707
0.00172907
0.00152418
0.00121437
0.000474702
-0.0012566
-0.00568701
0.00107139
0.00171228
0.0020778
0.00214816
0.00209104
0.00193096
0.00184544
0.00179165
0.00179634
0.00180777
0.00184213
0.00186684
0.00190341
0.00193931
0.00197312
0.00200771
0.00203107
0.00204328
0.00204863
0.0020233
0.00199014
0.00192236
0.00183769
0.00168172
0.00144174
0.00107205
0.000615606
5.09133e-05
-0.000862239
-0.00411468
0.00111185
0.00173169
0.002033
0.00216795
0.00205621
0.00198087
0.00183949
0.00182937
0.00177664
0.00182197
0.00181723
0.00186831
0.00188109
0.00192902
0.00194893
0.00198096
0.0019985
0.00200428
0.00200027
0.00196379
0.00188892
0.00180436
0.00167208
0.00152629
0.0012246
0.000688696
-0.000395396
-0.0018921
-0.00378155
-0.00350948
0.00123788
0.00168413
0.00200059
0.00210448
0.00208531
0.00196549
0.0018797
0.00182275
0.00179733
0.00180225
0.00182299
0.00185018
0.00188011
0.00191247
0.00193949
0.00195258
0.00196728
0.00195544
0.00193841
0.00188232
0.00180092
0.00166297
0.0014767
0.00125383
0.0010242
0.000745409
0.00041201
1.33461e-05
-0.000509285
-0.00340535
0.00125621
0.00173126
0.00195953
0.00212241
0.00205049
0.00200915
0.00186789
0.00184848
0.00178327
0.00180645
0.00180581
0.00183817
0.0018594
0.00188892
0.0019145
0.00192753
0.00193551
0.00191939
0.00187033
0.00181844
0.00171945
0.00160697
0.00144068
0.00124183
0.000845056
0.000104833
-0.00115472
-0.00278865
-0.0047102
-0.00410654
0.00137916
0.00168594
0.00193771
0.00205949
0.00207096
0.00199335
0.00191788
0.0018532
0.00180828
0.00179165
0.00180322
0.00181788
0.00184316
0.00186633
0.00188475
0.00188749
0.001883
0.00185569
0.00181431
0.00174811
0.00165352
0.00152026
0.00133637
0.0010805
0.000764902
0.000424855
9.12016e-05
-0.00035508
-0.00158608
-0.0056292
0.00144844
0.00168736
0.00191938
0.00203632
0.00206458
0.00199575
0.00193001
0.00185193
0.00181127
0.00178729
0.00178964
0.00180028
0.0018202
0.00184919
0.00185964
0.00185334
0.00184466
0.00180567
0.00176531
0.00168203
0.00158186
0.00142574
0.00124309
0.0010107
0.000745497
0.000367273
-0.00023225
-0.00137695
-0.00361589
-0.0086428
0.00147448
0.001731
0.00190492
0.00200918
0.00203768
0.00200228
0.00194133
0.00187609
0.00182902
0.00180068
0.00178498
0.00177861
0.00179121
0.00180158
0.00181292
0.00180942
0.0017974
0.00176167
0.00170914
0.00162117
0.00150411
0.00133634
0.00112951
0.000870796
0.00055714
0.0001194
-0.000571745
-0.00179749
-0.00413483
-0.0091598
0.00161511
0.00168947
0.00188935
0.0019797
0.00202421
0.00198296
0.00193825
0.00187634
0.00182807
0.00179597
0.00177556
0.00177265
0.00177002
0.00177619
0.00178575
0.00176905
0.00175802
0.00170996
0.00165389
0.0015552
0.00143525
0.00125
0.00100165
0.000639845
0.000187206
-0.000346172
-0.000921217
-0.00170163
-0.00324484
-0.00787732
0.0015536
0.00183138
0.00186468
0.00199446
0.00196662
0.00201003
0.00190725
0.00190559
0.00181413
0.00181139
0.00175437
0.00174718
0.00172944
0.00173465
0.00174145
0.00173302
0.00172249
0.00167725
0.00159084
0.0015034
0.00135421
0.00118892
0.000905138
0.000517038
-0.000209021
-0.0013201
-0.00285673
-0.00471502
-0.00678788
-0.00586139
0.0017223
0.00177205
0.00187238
0.00193364
0.00196272
0.00196552
0.00194027
0.00189204
0.00185107
0.00181112
0.00175842
0.00171286
0.00169115
0.00168286
0.00168606
0.00167364
0.00165488
0.00160685
0.0015371
0.00143444
0.00129552
0.00110039
0.000831711
0.000475795
5.28505e-05
-0.000423503
-0.001007
-0.00195606
-0.00402466
-0.00926156
0.00173262
0.00179162
0.00189285
0.00193979
0.00196163
0.00194593
0.00192184
0.00187834
0.0018301
0.00178706
0.00174283
0.00171391
0.00167594
0.00164991
0.00164107
0.00161303
0.0015976
0.00154552
0.00148431
0.00137289
0.00123958
0.0010465
0.000815281
0.000498096
8.22844e-05
-0.000588914
-0.0016532
-0.00345716
-0.00652485
-0.0123881
0.00175955
0.00187108
0.00190908
0.00192836
0.00193277
0.00191615
0.00190039
0.00186997
0.00183808
0.0017852
0.00173242
0.00167618
0.00162441
0.00160265
0.00158281
0.00156971
0.00153798
0.00149502
0.00142009
0.00131866
0.00117693
0.000997844
0.000758288
0.000436882
-3.36618e-05
-0.000729386
-0.00180727
-0.00355541
-0.00667004
-0.0126903
0.00185063
0.00188172
0.0019078
0.00191146
0.00190497
0.00189332
0.00187374
0.00185377
0.00182468
0.00178062
0.00171108
0.00163953
0.00158996
0.0015604
0.00154486
0.00152174
0.00148701
0.00143402
0.0013584
0.00125276
0.00111175
0.000926921
0.000680864
0.000340453
-0.000146593
-0.000868031
-0.00199267
-0.00386908
-0.00722154
-0.0135625
0.0018637
0.00191769
0.00194077
0.00193048
0.00190326
0.00187284
0.00184493
0.00181802
0.00178129
0.00173621
0.00168251
0.00162603
0.0015734
0.00153529
0.00150556
0.00147371
0.00142986
0.00137073
0.00129025
0.00118144
0.00103626
0.000844466
0.000586451
0.000230279
-0.00027938
-0.00104217
-0.00225051
-0.0042624
-0.0077774
-0.0142658
0.00192015
0.00196157
0.00196112
0.00193116
0.00188855
0.0018453
0.00180743
0.00177482
0.00173915
0.00169988
0.00165524
0.00160514
0.00155201
0.00150551
0.00146477
0.00142286
0.00137034
0.00130401
0.00121751
0.00110351
0.000951715
0.000750606
0.000479482
0.00010425
-0.000437255
-0.00125335
-0.00253815
-0.00464302
-0.00825245
-0.0147908
0.00196309
0.0019917
0.00197672
0.00193388
0.00187787
0.00182305
0.00177676
0.00173963
0.00170331
0.00166492
0.00162297
0.00157576
0.00152317
0.00147164
0.00142248
0.00137091
0.00130956
0.00123483
0.00114087
0.00101967
0.000859561
0.000647065
0.000360166
-3.84232e-05
-0.000614095
-0.00147681
-0.00281794
-0.00498373
-0.00863785
-0.0151935
0.00200511
0.00202303
0.00199737
0.00193968
0.00186934
0.00180218
0.00174648
0.00170309
0.00166377
0.00162555
0.00158528
0.0015402
0.00148816
0.00143359
0.00137779
0.0013177
0.00124725
0.00116319
0.00106021
0.000929921
0.000759545
0.000533736
0.000228859
-0.000193616
-0.000799462
-0.00169794
-0.00307825
-0.00527897
-0.00896103
-0.0155375
0.00204782
0.00205657
0.00201455
0.00194199
0.00185862
0.00178028
0.00171566
0.00166529
0.00162306
0.00158443
0.00154529
0.00150116
0.00144914
0.00139155
0.00133
0.00126205
0.00118271
0.00108865
0.00097544
0.000834372
0.000652206
0.000411933
8.92112e-05
-0.000354897
-0.000985256
-0.00191017
-0.00331512
-0.00553465
-0.00922798
-0.015811
0.00208767
0.00208555
0.00203183
0.00194525
0.00184841
0.00175874
0.00168528
0.00162887
0.00158336
0.001543
0.00150329
0.00145915
0.00140632
0.00134566
0.00127859
0.00120316
0.00111501
0.00101081
0.0008865
0.000733611
0.000538779
0.000284242
-5.49273e-05
-0.000517456
-0.00116729
-0.00211123
-0.00353146
-0.00576285
-0.00946604
-0.0160605
0.00212529
0.00211409
0.0020485
0.00194877
0.00183884
0.00173745
0.00165473
0.00159162
0.00154226
0.00149984
0.00145907
0.00141393
0.00135962
0.00129569
0.00122328
0.00114062
0.00104387
0.000929503
0.000793618
0.00062838
0.000420859
0.000152876
-0.000200762
-0.000678693
-0.00134407
-0.00230145
-0.00373271
-0.00597291
-0.00968276
-0.0162854
0.00216035
0.00214188
0.00206447
0.00195267
0.00183013
0.00171633
0.00162354
0.00155318
0.00149972
0.00145492
0.00141259
0.00136578
0.00130946
0.00124195
0.00116412
0.00107431
0.000969141
0.00084475
0.000697512
0.000520128
0.000300414
2.00775e-05
-0.000346159
-0.000836921
-0.00151406
-0.00248159
-0.00392168
-0.00616977
-0.00988544
-0.0164893
0.00218976
0.00216562
0.00208209
0.00195927
0.00182256
0.00169545
0.00159186
0.00151418
0.00145591
0.00140847
0.00136383
0.00131503
0.00125602
0.00118478
0.00110125
0.0010044
0.000890834
0.000756953
0.000598855
0.000410074
0.000178829
-0.000112612
-0.000489781
-0.000990906
-0.00167706
-0.00265217
-0.00409899
-0.00635354
-0.0100774
-0.0166921
0.00221781
0.00218822
0.00209756
0.00196398
0.00181442
0.00167495
0.00156081
0.0014752
0.00141149
0.00136051
0.00131304
0.00126163
0.00119956
0.00112425
0.001035
0.00093108
0.00080938
0.000666493
0.000498361
0.000298995
5.71885e-05
-0.000244264
-0.000630839
-0.00114004
-0.00183313
-0.00281387
-0.00426508
-0.00652319
-0.0102518
-0.0168751
0.00224642
0.00221108
0.00210886
0.00196445
0.00180482
0.0016548
0.00153069
0.00143645
0.00136662
0.00131112
0.00126033
0.00120565
0.00114027
0.00106056
0.000965713
0.000854765
0.00072534
0.000573918
0.00039667
0.000187589
-6.37291e-05
-0.000374131
-0.000768273
-0.00128392
-0.00198232
-0.00296727
-0.00442089
-0.00667881
-0.0104021
-0.0170155
0.00227085
0.00223014
0.00212014
0.0019657
0.00179536
0.00163471
0.00150058
0.00139769
0.00132106
0.00126054
0.00120575
0.00114743
0.0010783
0.000994141
0.000893703
0.000776044
0.000639196
0.000479882
0.000294289
7.65451e-05
-0.000183306
-0.000501186
-0.000901468
-0.00142216
-0.00212457
-0.00311228
-0.00456701
-0.00682448
-0.0105477
-0.0171662
0.00229133
0.0022464
0.00213097
0.0019677
0.0017861
0.00161422
0.00146987
0.00135835
0.00127475
0.00120888
0.00114957
0.00108723
0.001014
0.000925328
0.000819391
0.000695373
0.000551514
0.000384946
0.00019181
-3.3583e-05
-0.000300643
-0.000624655
-0.00102993
-0.00155449
-0.0022599
-0.00324959
-0.00470543
-0.00696339
-0.0106874
-0.017307
0.00231077
0.00226221
0.00213915
0.00196705
0.00177567
0.00159327
0.00143885
0.00131854
0.00122788
0.00115631
0.00109219
0.00102539
0.000947852
0.000854524
0.000743315
0.000613246
0.000462913
0.000289689
8.99059e-05
-0.000142061
-0.000415045
-0.000744096
-0.00115332
-0.00168087
-0.00238841
-0.00337965
-0.00483654
-0.00709522
-0.0108192
-0.0174376
0.00232711
0.00227493
0.00214594
0.00196564
0.0017646
0.00157194
0.00140763
0.00127858
0.00118067
0.00110318
0.00103391
0.000962381
0.000880283
0.000782285
0.000665956
0.000530241
0.000373934
0.00019472
-1.09431e-05
-0.000248295
-0.000526106
-0.000859203
-0.00127153
-0.00180123
-0.00251014
-0.00350219
-0.00495955
-0.00721858
-0.010943
-0.0175611
0.00234041
0.00228499
0.00215111
0.00196334
0.00175284
0.00155017
0.00137622
0.0012386
0.00113333
0.0010497
0.000975027
0.000898555
0.000811731
0.000709076
0.000587823
0.000446882
0.000285131
0.000100572
-0.000110061
-0.000351836
-0.000633553
-0.00096985
-0.00138454
-0.00191564
-0.00262513
-0.00361699
-0.00507363
-0.0073318
-0.0110566
-0.0176792
0.00235255
0.00229391
0.00215373
0.00195823
0.00173921
0.00152755
0.00134471
0.00119872
0.00108607
0.000996087
0.000915881
0.000834299
0.000742706
0.000635416
0.000509499
0.000363726
0.000197112
7.86115e-06
-0.000206906
-0.000452313
-0.000737132
-0.00107592
-0.00149229
-0.00202418
-0.00273351
-0.00372435
-0.00517915
-0.00743472
-0.0111563
-0.0177766
0.00236252
0.00230037
0.00215428
0.00195134
0.0017242
0.00150421
0.00131304
0.00115901
0.00103902
0.000942578
0.000856743
0.000770024
0.000673668
0.000561836
0.000431501
0.000281303
0.000110343
-8.28366e-05
-0.000301021
-0.000549368
-0.000836609
-0.00117725
-0.00159472
-0.00212689
-0.00283558
-0.0038249
-0.00527728
-0.00752982
-0.0112487
-0.0178698
0.00236977
0.00230462
0.0021533
0.00194357
0.00170869
0.00148051
0.00128115
0.00111927
0.000992127
0.000889317
0.000797872
0.000706052
0.000604999
0.00048879
0.000354303
0.000200092
2.54173e-05
-0.000171073
-0.000392095
-0.000642801
-0.000931899
-0.00127384
-0.00169197
-0.00222404
-0.00293192
-0.00391982
-0.00537038
-0.00762087
-0.0113375
-0.0179575
0.00237395
0.00230646
0.00215101
0.0019353
0.00169294
0.00145661
0.00124915
0.00107967
0.000945574
0.000836569
0.000739576
0.000642767
0.00053716
0.000416809
0.000278493
0.00012072
-5.71528e-05
-0.000256436
-0.000479817
-0.000732398
-0.00102289
-0.00136571
-0.00178417
-0.00231598
-0.00302308
-0.00400983
-0.00545921
-0.00770915
-0.0114273
-0.0180512
0.00237578
0.00230627
0.00214705
0.0019258
0.00167649
0.00143246
0.00121725
0.00104047
0.000899653
0.00078464
0.000682269
0.000580651
0.000470702
0.000346463
0.000204631
4.37875e-05
-0.00013681
-0.000338442
-0.000563769
-0.000817839
-0.00110938
-0.00145278
-0.00187138
-0.00240291
-0.00310937
-0.0040953
-0.00554394
-0.00779347
-0.0115116
-0.0181361
0.0023765
0.0023047
0.00214125
0.00191451
0.00165887
0.00140796
0.00118566
0.00100194
0.00085469
0.000733886
0.000626362
0.000520157
0.000406122
0.000278297
0.000133394
-3.01195e-05
-0.000213044
-0.00041667
-0.000643603
-0.000898875
-0.0011912
-0.001535
-0.00195362
-0.00248484
-0.00319073
-0.00417592
-0.00562374
-0.00787248
-0.0115898
-0.0182134
0.00237527
0.00230132
0.00213406
0.0019023
0.00164078
0.00138348
0.00115457
0.000964367
0.000811035
0.00068472
0.000572327
0.000461819
0.000344028
0.000212964
6.53188e-05
-0.000100555
-0.000285509
-0.000490837
-0.000719109
-0.000975337
-0.00126824
-0.00161226
-0.00203078
-0.0025616
-0.00326681
-0.00425107
-0.00569775
-0.00794515
-0.0116611
-0.0182843
0.00237244
0.00229657
0.00212595
0.00188959
0.0016226
0.0013593
0.00112424
0.000928008
0.000769016
0.000637566
0.000520637
0.000406168
0.000284944
0.000150933
7.94901e-07
-0.000167183
-0.000353907
-0.00056068
-0.000790049
-0.00104701
-0.0013403
-0.00168437
-0.00210263
-0.00263288
-0.00333724
-0.00432038
-0.00576573
-0.00801177
-0.0117267
-0.0183499
0.00236835
0.00229077
0.00211708
0.00187652
0.0016045
0.00133569
0.00109497
0.000893213
0.000729017
0.000592853
0.000471765
0.000353683
0.000229341
9.26608e-05
-5.97246e-05
-0.000229564
-0.000417816
-0.000625797
-0.000856051
-0.00111356
-0.00140706
-0.00175103
-0.00216888
-0.00269844
-0.00340184
-0.00438382
-0.00582793
-0.00807282
-0.011787
-0.0184105
0.00236342
0.00228427
0.00210776
0.00186339
0.00158681
0.00131301
0.00106716
0.000860394
0.000691494
0.000551065
0.000426221
0.000304878
0.000177737
3.86747e-05
-0.000115704
-0.000287175
-0.000476732
-0.000685715
-0.000916667
-0.00117456
-0.00146815
-0.00181192
-0.00222931
-0.00275816
-0.00346064
-0.00444155
-0.00588455
-0.00812846
-0.0118421
-0.0184659
0.00235797
0.00227743
0.0020984
0.00185059
0.00156993
0.00129167
0.00104125
0.000830022
0.000656939
0.000512725
0.000384549
0.000260313
0.000130698
-1.04643e-05
-0.000166593
-0.000339485
-0.000530156
-0.000739964
-0.000971464
-0.00122964
-0.00152324
-0.0018668
-0.00228376
-0.00281201
-0.00351373
-0.00449376
-0.00593581
-0.00817881
-0.0118918
-0.0185158
0.00235256
0.00227076
0.00208946
0.0018386
0.00155434
0.00127216
0.00101773
0.000802624
0.000625956
0.000478501
0.000347458
0.000220719
8.89441e-05
-5.4056e-05
-0.000211716
-0.00038585
-0.00057748
-0.000787982
-0.00101993
-0.00127832
-0.00157193
-0.00191531
-0.00233194
-0.00285974
-0.00356091
-0.00454035
-0.00598179
-0.00822419
-0.0119367
-0.0185606
0.00234738
0.00226462
0.00208147
0.00182804
0.00154066
0.00125507
0.000997197
0.000778846
0.000599232
0.000449163
0.00031581
0.000187037
5.34813e-05
-9.10514e-05
-0.000250004
-0.000425182
-0.000617616
-0.000828683
-0.00106098
-0.00131953
-0.00161313
-0.00195636
-0.00237274
-0.00290021
-0.00360105
-0.00458017
-0.00602141
-0.00826382
-0.0119767
-0.0186013
0.00234313
0.00225932
0.00207463
0.00181912
0.00152919
0.00124085
0.000980294
0.000759541
0.00057783
0.000425917
0.000290904
0.000160625
2.57098e-05
-0.000120017
-0.00027998
-0.000455963
-0.000648995
-0.000860456
-0.00109297
-0.00135157
-0.00164509
-0.00198813
-0.00240425
-0.00293143
-0.003632
-0.00461094
-0.00605213
-0.00829469
-0.0120079
-0.0186329
0.00234169
0.00225708
0.00206966
0.00181056
0.00151722
0.00122622
0.000963757
0.000741524
0.000558442
0.000405058
0.000268465
0.000136539
1.47528e-08
-0.000147215
-0.000308512
-0.000485632
-0.000679592
-0.000891777
-0.00112482
-0.00138376
-0.00167745
-0.00202047
-0.00243637
-0.00296312
-0.00366304
-0.00464117
-0.00608149
-0.00832342
-0.012037
-0.0186654
0.0142764
0.0139786
0.0124908
0.0103206
0.00752659
0.00423819
0.000619816
-0.00296673
-0.00580301
-0.00724492
-0.00730967
-0.00655059
-0.00554147
-0.00460874
-0.00388038
-0.00337527
-0.00305878
-0.00287888
-0.00278681
-0.00274478
-0.00272664
-0.00271598
-0.00270368
-0.00268571
-0.00266127
-0.00263142
-0.00259803
-0.00256313
-0.00252846
-0.00249531
-0.00246444
-0.00243623
-0.00241071
-0.00238775
-0.00236715
-0.00234869
-0.0023322
-0.00231756
-0.00230467
-0.00229342
-0.00228375
-0.00227554
-0.0022687
-0.00226311
-0.00225866
-0.00225525
-0.00225279
-0.00225121
-0.00225044
-0.00225045
-0.00225119
-0.00225264
-0.00225477
-0.00225757
-0.00226102
-0.00226508
-0.00226974
-0.00227499
-0.00228078
-0.00228712
-0.00229397
-0.00230131
-0.00230913
-0.00231741
-0.00232612
-0.00233526
-0.00234481
-0.00235475
-0.00236507
-0.00237575
-0.00238679
-0.00239817
-0.00240988
-0.00242192
-0.00243426
-0.0024469
-0.00245983
-0.00247305
-0.00248653
-0.00250029
-0.00251431
-0.00252857
-0.00254308
-0.00255782
-0.0025728
-0.002588
-0.00260341
-0.00261905
-0.00263488
-0.00265093
-0.00266717
-0.0026836
-0.00270022
-0.00271703
-0.00273403
-0.0027512
-0.00276855
-0.00278607
-0.00280376
-0.00282163
-0.00283966
-0.00285785
-0.00287621
-0.00289472
-0.0029134
-0.00293223
-0.00295121
-0.00297034
-0.00298962
-0.00300904
-0.0030286
-0.0030483
-0.00306814
-0.0030881
-0.00310821
-0.00312843
-0.00314879
-0.00316926
-0.00318986
-0.00321057
-0.00323141
-0.00325235
-0.00327341
-0.00329458
-0.00331585
-0.00333724
-0.00335873
-0.00338032
-0.00340202
-0.00342382
-0.00344572
-0.00346772
-0.00348982
-0.00351202
-0.00353431
-0.0035567
-0.00357919
-0.00360177
-0.00362444
-0.00364721
-0.00367006
-0.00369301
-0.00371604
-0.00373917
-0.00376238
-0.00378567
-0.00380905
-0.00383252
-0.00385607
-0.0038797
-0.00390341
-0.00392719
-0.00395107
-0.00397501
-0.00399903
-0.00402312
-0.0040473
-0.00407154
-0.00409586
-0.00412023
-0.00414469
-0.0041692
-0.00419379
-0.00421844
-0.00424316
-0.00426794
-0.00429279
-0.0043177
-0.00434268
-0.00436771
-0.00439282
-0.00441799
-0.00444323
-0.00446853
-0.00449391
-0.00451935
-0.00454485
-0.00457042
-0.00459605
-0.00462175
-0.00464751
-0.00467332
-0.00469919
-0.00472511
-0.0047511
-0.00477712