/*--------------------------------*- C++ -*----------------------------------*\
| =========                 |                                                 |
| \\      /  F ield         | OpenFOAM: The Open Source CFD Toolbox           |
|  \\    /   O peration     | Version:  v2006                                 |
|   \\  /    A nd           | Website:  www.openfoam.com                      |
|    \\/     M anipulation  |                                                 |
\*---------------------------------------------------------------------------*/
FoamFile
{
    version     2.0;
    format      ascii;
    class       surfaceScalarField;
    location    "1.7";
    object      phi;
}
// * * * * * * * * * * * * * * * * * * * * * * * * * * * * * * * * * * * * * //

dimensions      [0 3 -1 0 0 0 0];
oriented        oriented;


internalField   nonuniform List<scalar> 
52390
(
1.17003e-06
-3.19129e-07
1.17007e-06
2.81577e-07
1.17316e-06
-2.58017e-07
1.17326e-06
2.17205e-07
1.17678e-06
-2.07393e-07
1.1769e-06
1.67096e-07
1.18029e-06
-1.67264e-07
1.18019e-06
1.30176e-07
1.1834e-06
-1.3511e-07
1.18309e-06
9.9438e-08
1.18612e-06
-1.09836e-07
1.18558e-06
7.43289e-08
1.18842e-06
-8.96092e-08
1.18764e-06
5.54326e-08
1.19033e-06
-7.28507e-08
1.1893e-06
4.15447e-08
1.19189e-06
-5.90066e-08
1.19055e-06
3.1034e-08
1.19311e-06
-4.76474e-08
1.19136e-06
2.28327e-08
1.19397e-06
-3.8334e-08
1.19166e-06
1.64063e-08
1.19438e-06
-3.03585e-08
1.1913e-06
1.14555e-08
1.19422e-06
-2.25144e-08
1.1903e-06
7.45579e-09
1.19286e-06
-1.15587e-08
1.18662e-06
4.3957e-09
1.18216e-06
1.86387e-08
2.3648e-08
1.15367e-06
1.22708e-06
-3.21952e-07
1.22767e-06
2.80989e-07
1.23156e-06
-2.61905e-07
1.23222e-06
2.16551e-07
1.23607e-06
-2.11253e-07
1.23652e-06
1.66647e-07
1.23989e-06
-1.70631e-07
1.24019e-06
1.29879e-07
1.24309e-06
-1.38007e-07
1.24331e-06
9.92101e-08
1.24572e-06
-1.12238e-07
1.24595e-06
7.4095e-08
1.2478e-06
-9.14578e-08
1.24814e-06
5.50895e-08
1.24937e-06
-7.40825e-08
1.24996e-06
4.0956e-08
1.25047e-06
-5.95162e-08
1.25146e-06
3.00468e-08
1.25107e-06
-4.72614e-08
1.25265e-06
2.12583e-08
1.25111e-06
-3.67952e-08
1.25349e-06
1.40243e-08
1.25046e-06
-2.73272e-08
1.25386e-06
8.05263e-09
1.24899e-06
-1.76445e-08
1.25342e-06
3.026e-09
1.24638e-06
-4.51516e-09
1.24969e-06
1.08267e-09
1.23781e-06
3.05193e-08
3.89414e-08
1.22252e-06
1.28548e-06
-3.24645e-07
1.28905e-06
2.77418e-07
1.29182e-06
-2.64679e-07
1.295e-06
2.13371e-07
1.29717e-06
-2.1342e-07
1.3e-06
1.63815e-07
1.30126e-06
-1.71888e-07
1.30394e-06
1.27196e-07
1.30436e-06
-1.38426e-07
1.30705e-06
9.65141e-08
1.30666e-06
-1.11842e-07
1.30948e-06
7.12686e-08
1.30826e-06
-9.02381e-08
1.31134e-06
5.20166e-08
1.30929e-06
-7.2034e-08
1.3127e-06
3.75464e-08
1.30982e-06
-5.66339e-08
1.31358e-06
2.62781e-08
1.30989e-06
-4.3564e-08
1.31395e-06
1.71902e-08
1.30952e-06
-3.23565e-08
1.3137e-06
9.83887e-09
1.3087e-06
-2.23307e-08
1.31262e-06
4.13562e-09
1.30749e-06
-1.25171e-08
1.31032e-06
1.99976e-10
1.30596e-06
-1.50217e-10
1.30353e-06
3.50433e-09
1.30064e-06
3.34125e-08
6.14418e-08
1.27814e-06
1.34585e-06
-3.26391e-07
1.352e-06
2.7127e-07
1.35318e-06
-2.65861e-07
1.35867e-06
2.07878e-07
1.35889e-06
-2.13632e-07
1.36383e-06
1.58867e-07
1.36295e-06
-1.71006e-07
1.36756e-06
1.22586e-07
1.36577e-06
-1.36631e-07
1.37018e-06
9.2106e-08
1.36764e-06
-1.09303e-07
1.37191e-06
6.69934e-08
1.36878e-06
-8.71105e-08
1.37297e-06
4.78327e-08
1.3694e-06
-6.84686e-08
1.37348e-06
3.34704e-08
1.36962e-06
-5.27725e-08
1.3735e-06
2.23986e-08
1.36949e-06
-3.95532e-08
1.37303e-06
1.36466e-08
1.36902e-06
-2.83459e-08
1.37204e-06
6.82191e-09
1.3682e-06
-1.84967e-08
1.37037e-06
1.96593e-09
1.3671e-06
-9.24889e-09
1.36753e-06
-2.28816e-10
1.36579e-06
1.59604e-09
1.36056e-06
8.73238e-09
1.36005e-06
3.39148e-08
8.4651e-08
1.33685e-06
1.40861e-06
-3.26648e-07
1.41613e-06
2.63746e-07
1.41568e-06
-2.65403e-07
1.42241e-06
2.01145e-07
1.42103e-06
-2.12254e-07
1.42701e-06
1.52889e-07
1.42472e-06
-1.6872e-07
1.43008e-06
1.17231e-07
1.42714e-06
-1.3369e-07
1.43196e-06
8.72834e-08
1.42863e-06
-1.05968e-07
1.43297e-06
6.26455e-08
1.42947e-06
-8.36087e-08
1.4334e-06
4.38998e-08
1.42989e-06
-6.49578e-08
1.43344e-06
2.99285e-08
1.43e-06
-4.93359e-08
1.43314e-06
1.9262e-08
1.42981e-06
-3.62307e-08
1.43251e-06
1.09515e-08
1.42931e-06
-2.51523e-08
1.43148e-06
4.65253e-09
1.42848e-06
-1.54934e-08
1.42986e-06
5.8851e-10
1.42736e-06
-6.75396e-09
1.42711e-06
2.68606e-11
1.42554e-06
3.16473e-09
1.42109e-06
1.31777e-08
1.41819e-06
3.68159e-08
1.10595e-07
1.39225e-06
1.47435e-06
-3.25318e-07
1.48194e-06
2.56154e-07
1.48017e-06
-2.63634e-07
1.48693e-06
1.94387e-07
1.48461e-06
-2.09939e-07
1.49052e-06
1.4698e-07
1.48768e-06
-1.65878e-07
1.49281e-06
1.12101e-07
1.48964e-06
-1.30525e-07
1.49409e-06
8.28367e-08
1.49082e-06
-1.027e-07
1.49469e-06
5.87749e-08
1.49148e-06
-8.03984e-08
1.49491e-06
4.04725e-08
1.49182e-06
-6.18692e-08
1.4949e-06
2.68516e-08
1.49191e-06
-4.63489e-08
1.49467e-06
1.64999e-08
1.49175e-06
-3.33068e-08
1.49418e-06
8.52334e-09
1.4913e-06
-2.22722e-08
1.49328e-06
2.6651e-09
1.49051e-06
-1.27219e-08
1.49179e-06
-6.8409e-10
1.48924e-06
-4.21307e-09
1.48945e-06
-1.7762e-10
1.48651e-06
6.10542e-09
1.48429e-06
1.53949e-08
1.48318e-06
3.79305e-08
6.42224e-08
1.52955e-06
1.54355e-06
-3.22654e-07
1.55037e-06
2.49337e-07
1.54772e-06
-2.60983e-07
1.55376e-06
1.88345e-07
1.55101e-06
-2.07185e-07
1.55629e-06
1.41693e-07
1.55334e-06
-1.62928e-07
1.55792e-06
1.07525e-07
1.55485e-06
-1.27456e-07
1.55883e-06
7.88599e-08
1.55575e-06
-9.96271e-08
1.55927e-06
5.52605e-08
1.55627e-06
-7.74012e-08
1.55948e-06
3.72683e-08
1.55656e-06
-5.89552e-08
1.55954e-06
2.38709e-08
1.55667e-06
-4.34749e-08
1.55943e-06
1.37426e-08
1.55657e-06
-3.04473e-08
1.55902e-06
6.06767e-09
1.5562e-06
-1.94535e-08
1.55817e-06
6.97648e-10
1.55552e-06
-1.00711e-08
1.55662e-06
-1.78138e-09
1.55449e-06
-2.08116e-09
1.55376e-06
5.45806e-10
1.5526e-06
7.27224e-09
1.54767e-06
2.03188e-08
1.54339e-06
4.2214e-08
9.51459e-08
1.51246e-06
1.6165e-06
-3.19021e-07
1.62235e-06
2.43483e-07
1.61911e-06
-2.57739e-07
1.62431e-06
1.8314e-07
1.62129e-06
-2.04169e-07
1.62597e-06
1.37015e-07
1.62294e-06
-1.59897e-07
1.6271e-06
1.03366e-07
1.62402e-06
-1.24374e-07
1.62776e-06
7.51219e-08
1.62467e-06
-9.65397e-08
1.6281e-06
5.1831e-08
1.62505e-06
-7.43524e-08
1.62828e-06
3.40356e-08
1.62528e-06
-5.59545e-08
1.62835e-06
2.07984e-08
1.62539e-06
-4.05063e-08
1.62824e-06
1.08895e-08
1.62532e-06
-2.75282e-08
1.62781e-06
3.57572e-09
1.62503e-06
-1.66686e-08
1.6269e-06
-1.17524e-09
1.62441e-06
-7.57888e-09
1.62523e-06
-2.60127e-09
1.62342e-06
-2.76546e-10
1.62205e-06
1.92019e-09
1.62158e-06
7.73856e-09
1.61645e-06
2.54476e-08
1.61167e-06
4.70007e-08
1.31743e-07
1.57507e-06
1.69326e-06
-3.14708e-07
1.69843e-06
2.38314e-07
1.6947e-06
-2.54003e-07
1.69934e-06
1.78497e-07
1.69602e-06
-2.00847e-07
1.70037e-06
1.32657e-07
1.69711e-06
-1.56634e-07
1.70113e-06
9.93494e-08
1.69783e-06
-1.21077e-07
1.70157e-06
7.13829e-08
1.69826e-06
-9.32287e-08
1.70179e-06
4.83045e-08
1.6985e-06
-7.10705e-08
1.70187e-06
3.06643e-08
1.69865e-06
-5.27345e-08
1.70186e-06
1.75953e-08
1.69872e-06
-3.73679e-08
1.70165e-06
7.96072e-09
1.69865e-06
-2.45262e-08
1.70112e-06
1.10336e-09
1.69835e-06
-1.39031e-08
1.70012e-06
-2.94289e-09
1.69765e-06
-5.10839e-09
1.69862e-06
-3.56897e-09
1.69577e-06
2.57262e-09
1.69648e-06
1.21052e-09
1.69129e-06
1.29291e-08
1.69577e-06
2.09681e-08
1.69682e-06
4.59531e-08
8.231e-08
1.74625e-06
1.77389e-06
-3.09875e-07
1.77881e-06
2.33394e-07
1.77457e-06
-2.49766e-07
1.77903e-06
1.74039e-07
1.7753e-06
-1.97116e-07
1.77965e-06
1.28307e-07
1.77601e-06
-1.52999e-07
1.78012e-06
9.52404e-08
1.77647e-06
-1.17424e-07
1.78037e-06
6.74813e-08
1.77672e-06
-8.95811e-08
1.78044e-06
4.45865e-08
1.77685e-06
-6.74799e-08
1.7804e-06
2.71201e-08
1.77692e-06
-4.92606e-08
1.78024e-06
1.42799e-08
1.77694e-06
-3.40679e-08
1.77987e-06
5.02317e-09
1.77685e-06
-2.15031e-08
1.77917e-06
-1.21985e-09
1.77656e-06
-1.12916e-08
1.77802e-06
-4.3969e-09
1.77584e-06
-2.93097e-09
1.77634e-06
-4.07179e-09
1.77374e-06
5.17156e-09
1.7743e-06
6.5461e-10
1.76817e-06
1.90547e-08
1.77456e-06
1.45846e-08
1.77618e-06
4.43304e-08
2.65404e-08
1.83195e-06
1.85846e-06
-3.04587e-07
1.86351e-06
2.28343e-07
1.85872e-06
-2.44978e-07
1.8633e-06
1.6946e-07
1.85908e-06
-1.92897e-07
1.86366e-06
1.23733e-07
1.85957e-06
-1.48912e-07
1.86393e-06
9.08776e-08
1.85986e-06
-1.1335e-07
1.86402e-06
6.33159e-08
1.86e-06
-8.55561e-08
1.86396e-06
4.06258e-08
1.86005e-06
-6.35698e-08
1.86377e-06
2.33971e-08
1.86007e-06
-4.55556e-08
1.86346e-06
1.08894e-08
1.86005e-06
-3.06645e-08
1.86292e-06
2.15469e-09
1.85997e-06
-1.85496e-08
1.86203e-06
-3.28557e-09
1.8597e-06
-8.95286e-09
1.86068e-06
-5.38394e-09
1.85901e-06
-1.25363e-09
1.85862e-06
-3.68253e-09
1.85742e-06
6.36703e-09
1.85531e-06
2.76441e-09
1.85361e-06
2.07547e-08
1.84858e-06
1.96148e-08
1.83879e-06
5.41236e-08
6.24381e-08
1.80289e-06
1.94711e-06
-2.98859e-07
1.95255e-06
2.22901e-07
1.94716e-06
-2.39588e-07
1.95207e-06
1.64553e-07
1.94731e-06
-1.88133e-07
1.95226e-06
1.18781e-07
1.94768e-06
-1.44332e-07
1.9524e-06
8.61543e-08
1.94788e-06
-1.08829e-07
1.95238e-06
5.88217e-08
1.94797e-06
-8.11484e-08
1.9522e-06
3.63954e-08
1.94799e-06
-5.93629e-08
1.95188e-06
1.95071e-08
1.948e-06
-4.16755e-08
1.95142e-06
7.47635e-09
1.948e-06
-2.725e-08
1.95071e-06
-5.50943e-10
1.94794e-06
-1.57858e-08
1.94964e-06
-4.98708e-09
1.94769e-06
-6.99484e-09
1.94812e-06
-5.81738e-09
1.94701e-06
-1.4292e-10
1.94581e-06
-2.48303e-09
1.94545e-06
6.72794e-09
1.94183e-06
6.38696e-09
1.94278e-06
1.97993e-08
1.93161e-06
3.07841e-08
1.92698e-06
5.87549e-08
9.3679e-08
1.89574e-06
2.04002e-06
-2.92689e-07
2.04602e-06
2.16902e-07
2.03998e-06
-2.33546e-07
2.04534e-06
1.59186e-07
2.03999e-06
-1.82783e-07
2.04542e-06
1.1335e-07
2.04033e-06
-1.39234e-07
2.04548e-06
8.1003e-08
2.0405e-06
-1.03855e-07
2.04536e-06
5.39649e-08
2.04059e-06
-7.63741e-08
2.04508e-06
3.18968e-08
2.04063e-06
-5.49073e-08
2.04465e-06
1.54906e-08
2.04068e-06
-3.77068e-08
2.04403e-06
4.12437e-09
2.04073e-06
-2.39537e-08
2.04315e-06
-2.96679e-09
2.04073e-06
-1.33627e-08
2.04194e-06
-6.20459e-09
2.04048e-06
-5.5307e-09
2.0403e-06
-5.64279e-09
2.03966e-06
5.01959e-10
2.03813e-06
-9.52301e-10
2.03738e-06
7.47582e-09
2.0342e-06
9.565e-09
2.0331e-06
2.0899e-08
2.02605e-06
3.7837e-08
2.01455e-06
7.02565e-08
1.26941e-07
1.98129e-06
2.13738e-06
-2.86069e-07
2.14405e-06
2.10235e-07
2.1373e-06
-2.268e-07
2.14322e-06
1.53271e-07
2.13724e-06
-1.76809e-07
2.14322e-06
1.07376e-07
2.13758e-06
-1.33603e-07
2.1432e-06
7.53854e-08
2.13778e-06
-9.84301e-08
2.143e-06
4.87394e-08
2.13789e-06
-7.12648e-08
2.14263e-06
2.71594e-08
2.13799e-06
-5.02698e-08
2.14207e-06
1.14145e-08
2.13812e-06
-3.37532e-08
2.14131e-06
9.33457e-10
2.13825e-06
-2.08973e-08
2.14028e-06
-4.99345e-09
2.1383e-06
-1.1383e-08
2.13898e-06
-6.88293e-09
2.13799e-06
-4.54144e-09
2.13749e-06
-5.14171e-09
2.1366e-06
1.38347e-09
2.13578e-06
-1.23267e-10
2.13355e-06
9.70488e-09
2.13168e-06
1.14271e-08
2.12605e-06
2.65324e-08
2.13202e-06
3.18671e-08
2.15566e-06
4.66194e-08
5.20509e-08
2.23055e-06
2.2394e-06
-2.78982e-07
2.24681e-06
2.02822e-07
2.23932e-06
-2.19301e-07
2.24584e-06
1.46746e-07
2.23921e-06
-1.70178e-07
2.24577e-06
1.00818e-07
2.23959e-06
-1.27429e-07
2.24569e-06
6.92882e-08
2.23984e-06
-9.25752e-08
2.24541e-06
4.31689e-08
2.24002e-06
-6.58757e-08
2.24493e-06
2.22486e-08
2.24021e-06
-4.55486e-08
2.24423e-06
7.38955e-09
2.24044e-06
-2.99609e-08
2.24331e-06
-1.93998e-09
2.24068e-06
-1.82604e-08
2.24215e-06
-6.4662e-09
2.24078e-06
-1.00139e-08
2.24077e-06
-6.86943e-09
2.24044e-06
-4.22047e-09
2.23912e-06
-3.81511e-09
2.23924e-06
1.2576e-09
2.2369e-06
2.22326e-09
2.2363e-06
1.03068e-08
2.23288e-06
1.48411e-08
2.23047e-06
2.89412e-08
2.22343e-06
3.89083e-08
2.20739e-06
6.26587e-08
8.29073e-08
2.17654e-06
2.34631e-06
-2.71413e-07
2.35453e-06
1.94603e-07
2.34622e-06
-2.10999e-07
2.3534e-06
1.39565e-07
2.34609e-06
-1.62859e-07
2.35325e-06
9.36524e-08
2.34654e-06
-1.20714e-07
2.35311e-06
6.27188e-08
2.34685e-06
-8.63236e-08
2.35272e-06
3.73006e-08
2.34713e-06
-6.02803e-08
2.35212e-06
1.72551e-08
2.34743e-06
-4.08615e-08
2.35127e-06
3.54766e-09
2.3478e-06
-2.64861e-08
2.3502e-06
-4.33729e-09
2.34814e-06
-1.62023e-08
2.34894e-06
-7.26365e-09
2.34826e-06
-9.33849e-09
2.34752e-06
-6.132e-09
2.34789e-06
-4.58726e-09
2.3456e-06
-1.52466e-09
2.34701e-06
-1.55903e-10
2.34277e-06
6.47081e-09
2.34448e-06
8.59748e-09
2.33859e-06
2.07281e-08
2.33947e-06
2.80623e-08
2.32465e-06
5.37264e-08
2.3151e-06
7.22046e-08
1.07152e-07
2.29086e-06
2.45833e-06
-2.63347e-07
2.4674e-06
1.85536e-07
2.45826e-06
-2.01858e-07
2.46612e-06
1.31704e-07
2.4581e-06
-1.54843e-07
2.46587e-06
8.58825e-08
2.45864e-06
-1.1348e-07
2.46564e-06
5.57158e-08
2.45906e-06
-7.97395e-08
2.46514e-06
3.12187e-08
2.45944e-06
-5.45875e-08
2.4644e-06
1.2304e-08
2.45988e-06
-3.63473e-08
2.4634e-06
2.48697e-11
2.46037e-06
-2.3452e-08
2.46221e-06
-6.17668e-09
2.46076e-06
-1.475e-08
2.46096e-06
-7.4659e-09
2.46072e-06
-9.10157e-09
2.45976e-06
-5.17066e-09
2.45994e-06
-4.77048e-09
2.45842e-06
2.04867e-12
2.4582e-06
6.6465e-11
2.45602e-06
8.64268e-09
2.45455e-06
1.0067e-08
2.4514e-06
2.38847e-08
2.44886e-06
3.0604e-08
2.44072e-06
6.18638e-08
2.42255e-06
9.03766e-08
1.41353e-07
2.38834e-06
2.57573e-06
-2.54778e-07
2.58567e-06
1.75594e-07
2.57567e-06
-1.91857e-07
2.58421e-06
1.23157e-07
2.57551e-06
-1.46135e-07
2.58385e-06
7.75344e-08
2.57615e-06
-1.05775e-07
2.58352e-06
4.83455e-08
2.5767e-06
-7.29159e-08
2.58288e-06
2.50391e-08
2.57722e-06
-4.8936e-08
2.58198e-06
7.54641e-09
2.57779e-06
-3.21599e-08
2.58086e-06
-3.03776e-09
2.57838e-06
-2.0972e-08
2.57961e-06
-7.40657e-09
2.57873e-06
-1.3874e-08
2.57847e-06
-7.2092e-09
2.57843e-06
-9.05925e-09
2.57764e-06
-4.3775e-09
2.57694e-06
-4.07323e-09
2.57716e-06
-2.13716e-10
2.57422e-06
3.00782e-09
2.57532e-06
7.53502e-09
2.56988e-06
1.55116e-08
2.56914e-06
2.46261e-08
2.56125e-06
3.84908e-08
2.57826e-06
4.48584e-08
2.61405e-06
5.45873e-08
5.45172e-08
2.70088e-06
2.69875e-06
-2.45703e-07
2.70959e-06
1.64758e-07
2.69872e-06
-1.80989e-07
2.70795e-06
1.13932e-07
2.69857e-06
-1.36762e-07
2.70745e-06
6.86575e-08
2.69935e-06
-9.76726e-08
2.70699e-06
4.07065e-08
2.70006e-06
-6.5984e-08
2.70617e-06
1.89228e-08
2.70075e-06
-4.35111e-08
2.70511e-06
3.1841e-09
2.70147e-06
-2.85196e-08
2.70385e-06
-5.41901e-09
2.70211e-06
-1.92339e-08
2.70259e-06
-7.88856e-09
2.70242e-06
-1.36967e-08
2.7015e-06
-6.28787e-09
2.70206e-06
-9.62359e-09
2.70049e-06
-2.80593e-09
2.70102e-06
-4.60047e-09
2.69913e-06
1.67354e-09
2.69886e-06
3.28011e-09
2.69657e-06
9.81623e-09
2.69467e-06
1.74209e-08
2.69176e-06
2.75295e-08
2.68825e-06
4.20025e-08
2.67919e-06
5.39205e-08
2.65804e-06
7.574e-08
8.93617e-08
2.62319e-06
2.82768e-06
-2.36116e-07
2.83942e-06
1.53017e-07
2.82769e-06
-1.69253e-07
2.83757e-06
1.04047e-07
2.82757e-06
-1.26758e-07
2.83691e-06
5.93105e-08
2.82849e-06
-8.92525e-08
2.8363e-06
3.28992e-08
2.82938e-06
-5.90674e-08
2.83531e-06
1.29939e-08
2.8302e-06
-3.84e-08
2.83412e-06
-7.36822e-10
2.83105e-06
-2.54488e-08
2.83277e-06
-7.13588e-09
2.83171e-06
-1.81782e-08
2.83156e-06
-7.73422e-09
2.8319e-06
-1.40409e-08
2.83052e-06
-4.90741e-09
2.83158e-06
-1.06847e-08
2.82912e-06
-3.44915e-10
2.83105e-06
-6.52935e-09
2.82672e-06
6.00599e-09
2.82995e-06
5.1237e-11
2.82344e-06
1.63246e-08
2.82699e-06
1.38685e-08
2.81931e-06
3.52103e-08
2.8204e-06
4.0917e-08
2.7998e-06
7.45177e-08
2.79036e-06
8.51807e-08
1.14115e-07
2.76561e-06
2.96281e-06
-2.26027e-07
2.97543e-06
1.40394e-07
2.96287e-06
-1.56689e-07
2.97335e-06
9.35663e-08
2.96279e-06
-1.16203e-07
2.97249e-06
4.96114e-08
2.9639e-06
-8.06605e-08
2.97169e-06
2.51063e-08
2.96502e-06
-5.23924e-08
2.97046e-06
7.54769e-09
2.96612e-06
-3.40554e-08
2.96901e-06
-3.63036e-09
2.96705e-06
-2.34908e-08
2.96774e-06
-7.8205e-09
2.96753e-06
-1.7968e-08
2.9668e-06
-7.00878e-09
2.96736e-06
-1.4597e-08
2.96612e-06
-3.67215e-09
2.96673e-06
-1.12879e-08
2.96514e-06
1.24292e-09
2.96535e-06
-6.73571e-09
2.96343e-06
7.91725e-09
2.96325e-06
2.31892e-10
2.96005e-06
1.95312e-08
2.9584e-06
1.55123e-08
2.95587e-06
3.7739e-08
2.95316e-06
4.3629e-08
2.94215e-06
8.55337e-08
2.91668e-06
1.10651e-07
1.52039e-07
2.87875e-06
3.10444e-06
-2.15461e-07
3.11791e-06
1.26925e-07
3.10458e-06
-1.43364e-07
3.11558e-06
8.25705e-08
3.10457e-06
-1.05193e-07
3.1145e-06
3.96807e-08
3.10586e-06
-7.20267e-08
3.11351e-06
1.74581e-08
3.10718e-06
-4.60625e-08
3.11215e-06
2.5842e-09
3.10831e-06
-3.0215e-08
3.11078e-06
-6.10673e-09
3.10903e-06
-2.17364e-08
3.10993e-06
-8.72573e-09
3.10881e-06
-1.68438e-08
3.10984e-06
-8.03902e-09
3.10763e-06
-1.23866e-08
3.11022e-06
-6.26281e-09
3.10555e-06
-6.62308e-09
3.11065e-06
-3.8512e-09
3.10271e-06
1.20711e-09
3.11042e-06
2.00414e-10
3.09979e-06
1.08653e-08
3.10782e-06
1.15013e-08
3.09556e-06
2.77705e-08
3.09898e-06
3.43199e-08
3.08842e-06
5.41911e-08
3.12125e-06
5.26997e-08
3.16734e-06
6.45594e-08
5.99198e-08
3.25946e-06
3.2529e-06
-2.04451e-07
3.26715e-06
1.12673e-07
3.25317e-06
-1.29384e-07
3.26456e-06
7.11811e-08
3.25324e-06
-9.38692e-08
3.26322e-06
2.96987e-08
3.25475e-06
-6.35573e-08
3.26201e-06
1.01979e-08
3.25633e-06
-4.03855e-08
3.26039e-06
-1.47328e-09
3.25768e-06
-2.74982e-08
3.25889e-06
-7.3247e-09
3.2585e-06
-2.13389e-08
3.2579e-06
-8.1258e-09
3.25858e-06
-1.75238e-08
3.2572e-06
-6.66367e-09
3.25839e-06
-1.35802e-08
3.25612e-06
-3.99237e-09
3.25822e-06
-8.71547e-09
3.25432e-06
4.46735e-11
3.25764e-06
-2.11722e-09
3.25158e-06
6.26338e-09
3.25534e-06
7.11009e-09
3.24817e-06
1.86652e-08
3.25209e-06
2.38569e-08
3.24587e-06
4.05319e-08
3.24736e-06
5.27069e-08
3.22664e-06
7.34159e-08
3.20308e-06
8.81182e-08
1.01758e-07
3.16125e-06
3.40851e-06
-1.93031e-07
3.42347e-06
9.77151e-08
3.40897e-06
-1.14883e-07
3.4206e-06
5.95453e-08
3.40913e-06
-8.23935e-08
3.41895e-06
1.98738e-08
3.41088e-06
-5.54846e-08
3.41748e-06
3.59386e-09
3.4128e-06
-3.56983e-08
3.41556e-06
-4.23272e-09
3.41436e-06
-2.62988e-08
3.41397e-06
-6.94134e-09
3.41512e-06
-2.24862e-08
3.41301e-06
-6.01251e-09
3.41523e-06
-1.97428e-08
3.41215e-06
-3.58984e-09
3.41529e-06
-1.67183e-08
3.41087e-06
4.26832e-10
3.41489e-06
-1.2729e-08
3.4092e-06
5.72775e-09
3.41425e-06
-7.16069e-09
3.40622e-06
1.42896e-08
3.41219e-06
1.14234e-09
3.40298e-06
2.78683e-08
3.40801e-06
1.88308e-08
3.40175e-06
4.67939e-08
3.40654e-06
4.79117e-08
3.38216e-06
9.77977e-08
3.35515e-06
1.15133e-07
1.46248e-07
3.31066e-06
3.57165e-06
-1.81265e-07
3.58718e-06
8.21807e-08
3.57234e-06
-1.00048e-07
3.58405e-06
4.78433e-08
3.57257e-06
-7.09201e-08
3.58211e-06
1.03418e-08
3.57442e-06
-4.78034e-08
3.58064e-06
-2.62224e-09
3.57619e-06
-3.12432e-08
3.57915e-06
-7.20005e-09
3.577e-06
-2.4151e-08
3.57861e-06
-8.54375e-09
3.57655e-06
-2.04306e-08
3.57899e-06
-8.44921e-09
3.57507e-06
-1.58244e-08
3.57988e-06
-8.40381e-09
3.57276e-06
-9.59134e-09
3.58136e-06
-8.1785e-09
3.56973e-06
-1.09779e-09
3.58194e-06
-6.48522e-09
3.56656e-06
8.22215e-09
3.58213e-06
-1.27434e-09
3.56348e-06
1.9783e-08
3.57982e-06
1.15305e-08
3.55954e-06
3.911e-08
3.56976e-06
3.65757e-08
3.55563e-06
6.20394e-08
3.60411e-06
4.93225e-08
3.65619e-06
6.30482e-08
5.83558e-08
3.74409e-06
3.74268e-06
-1.69236e-07
3.75862e-06
6.62354e-08
3.74372e-06
-8.51459e-08
3.75523e-06
3.63294e-08
3.74401e-06
-5.96984e-08
3.75291e-06
1.44086e-09
3.74604e-06
-4.09274e-08
3.75128e-06
-7.86666e-09
3.74797e-06
-2.7934e-08
3.74962e-06
-8.85263e-09
3.74919e-06
-2.37169e-08
3.74838e-06
-7.72979e-09
3.74994e-06
-2.19933e-08
3.74688e-06
-5.3937e-09
3.75079e-06
-1.97284e-08
3.74515e-06
-2.7678e-09
3.75131e-06
-1.57539e-08
3.74332e-06
-1.79223e-10
3.75156e-06
-9.34655e-09
3.74171e-06
3.37145e-09
3.74977e-06
1.57457e-10
3.73914e-06
9.35411e-09
3.74667e-06
1.22559e-08
3.73704e-06
2.11636e-08
3.74484e-06
3.13041e-08
3.73802e-06
4.34033e-08
3.73773e-06
6.23228e-08
3.71445e-06
7.26074e-08
3.68403e-06
9.34691e-08
1.07575e-07
3.63481e-06
3.92197e-06
-1.57014e-07
3.93812e-06
5.00779e-08
3.9235e-06
-7.05221e-08
3.9345e-06
2.53338e-08
3.92386e-06
-4.90673e-08
3.9317e-06
-6.3954e-09
3.92592e-06
-3.51455e-08
3.93013e-06
-1.20752e-08
3.92771e-06
-2.5516e-08
3.92871e-06
-9.85293e-09
3.92881e-06
-2.38165e-08
3.92736e-06
-6.28075e-09
3.93012e-06
-2.47479e-08
3.92517e-06
-4.44299e-10
3.93144e-06
-2.60026e-08
3.92275e-06
5.91977e-09
3.93302e-06
-2.60202e-08
3.91973e-06
1.31109e-08
3.93432e-06
-2.39365e-08
3.91629e-06
2.14044e-08
3.93484e-06
-1.83954e-08
3.91302e-06
3.11728e-08
3.93358e-06
-8.30573e-09
3.91136e-06
4.33862e-08
3.93379e-06
8.8752e-09
3.91542e-06
6.17693e-08
3.9363e-06
4.1442e-08
3.89055e-06
1.18361e-07
3.85798e-06
1.2604e-07
1.55351e-07
3.8102e-06
4.10994e-06
-1.44701e-07
4.12608e-06
3.39309e-08
4.11206e-06
-5.64986e-08
4.12236e-06
1.5032e-08
4.11217e-06
-3.88796e-08
4.11951e-06
-1.37294e-08
4.11364e-06
-2.92784e-08
4.11896e-06
-1.73931e-08
4.11386e-06
-2.04164e-08
4.11963e-06
-1.56239e-08
4.11258e-06
-1.67617e-08
4.12092e-06
-1.46251e-08
4.11043e-06
-1.42528e-08
4.12252e-06
-1.25377e-08
4.1082e-06
-1.16889e-08
4.12353e-06
-9.40897e-09
4.10618e-06
-8.66237e-09
4.124e-06
-4.71501e-09
4.10439e-06
-4.32597e-09
4.12347e-06
2.32989e-09
4.10286e-06
2.20674e-09
4.12102e-06
1.30171e-08
4.10071e-06
1.19986e-08
4.11668e-06
2.74187e-08
4.09802e-06
2.75373e-08
4.11616e-06
4.36276e-08
4.10761e-06
4.99911e-08
4.15831e-06
6.76664e-08
4.21038e-06
7.39673e-08
8.52646e-08
4.28047e-06
4.30706e-06
-1.32458e-07
4.32282e-06
1.81685e-08
4.3103e-06
-4.39744e-08
4.31897e-06
6.36029e-09
4.31017e-06
-3.00772e-08
4.31554e-06
-1.90998e-08
4.31138e-06
-2.5125e-08
4.3151e-06
-2.11061e-08
4.31146e-06
-1.67837e-08
4.31597e-06
-2.01343e-08
4.31025e-06
-1.10413e-08
4.31718e-06
-2.15549e-08
4.30831e-06
-5.37409e-09
4.31878e-06
-2.30121e-08
4.30577e-06
1.32394e-09
4.32005e-06
-2.36958e-08
4.30351e-06
7.88368e-09
4.32082e-06
-2.20257e-08
4.30133e-06
1.5165e-08
4.32057e-06
-1.69092e-08
4.29917e-06
2.36073e-08
4.31931e-06
-7.12499e-09
4.29675e-06
3.45571e-08
4.31497e-06
9.20283e-09
4.29302e-06
4.94794e-08
4.3122e-06
2.4451e-08
4.31049e-06
5.17054e-08
4.36142e-06
1.67323e-08
4.40973e-06
2.5655e-08
4.3288e-09
4.49067e-06
4.5138e-06
-1.20483e-07
4.52865e-06
3.31852e-09
4.51944e-06
-3.47676e-08
4.52494e-06
8.58961e-10
4.51792e-06
-2.30571e-08
4.52083e-06
-2.20036e-08
4.51881e-06
-2.31091e-08
4.51958e-06
-2.1873e-08
4.51983e-06
-1.70342e-08
4.51925e-06
-1.95533e-08
4.52106e-06
-1.28551e-08
4.5181e-06
-1.8594e-08
4.52192e-06
-9.19303e-09
4.51651e-06
-1.76053e-08
4.52256e-06
-4.72043e-09
4.51508e-06
-1.62152e-08
4.5226e-06
3.55411e-10
4.51379e-06
-1.32075e-08
4.52178e-06
7.17648e-09
4.5119e-06
-7.03702e-09
4.51901e-06
1.64966e-08
4.50818e-06
3.71076e-09
4.51295e-06
2.9786e-08
4.50434e-06
1.78076e-08
4.51208e-06
4.17436e-08
4.5049e-06
3.16343e-08
4.50856e-06
4.80469e-08
4.48003e-06
4.52622e-08
4.44237e-06
6.33072e-08
6.19771e-08
4.38472e-06
4.73038e-06
-1.08751e-07
4.74463e-06
-1.09265e-08
4.73644e-06
-2.6583e-08
4.74159e-06
-4.28479e-09
4.73503e-06
-1.65035e-08
4.73663e-06
-2.36012e-08
4.73555e-06
-2.20317e-08
4.73486e-06
-2.11785e-08
4.73768e-06
-1.98564e-08
4.73379e-06
-1.56586e-08
4.73959e-06
-1.86627e-08
4.73184e-06
-1.08429e-08
4.74109e-06
-1.8439e-08
4.72943e-06
-5.94624e-09
4.74256e-06
-1.78506e-08
4.72726e-06
-9.20276e-10
4.74313e-06
-1.55106e-08
4.72559e-06
4.32895e-09
4.74276e-06
-9.98834e-09
4.72418e-06
1.15397e-08
4.74125e-06
-5.72178e-10
4.72276e-06
2.22036e-08
4.73992e-06
1.26208e-08
4.72283e-06
3.49034e-08
4.73667e-06
2.78983e-08
4.71443e-06
5.38724e-08
4.71154e-06
5.09412e-08
4.68672e-06
7.00879e-08
4.68026e-06
6.9765e-08
9.43974e-08
4.64784e-06
4.95774e-06
-9.7692e-08
4.96948e-06
-2.267e-08
4.96704e-06
-2.41363e-08
4.96599e-06
-3.23756e-09
4.96602e-06
-1.65362e-08
4.96117e-06
-1.87543e-08
4.96407e-06
-2.49282e-08
4.96047e-06
-1.75747e-08
4.96492e-06
-2.43085e-08
4.96059e-06
-1.13263e-08
4.96558e-06
-2.3656e-08
4.96016e-06
-5.42425e-09
4.96568e-06
-2.39549e-08
4.95938e-06
3.4989e-10
4.96501e-06
-2.34772e-08
4.95913e-06
4.96206e-09
4.9642e-06
-2.0589e-08
4.95783e-06
1.07009e-08
4.9615e-06
-1.36594e-08
4.95412e-06
1.89181e-08
4.95608e-06
-2.52776e-09
4.94942e-06
2.88632e-08
4.9508e-06
1.12376e-08
4.94712e-06
3.85893e-08
4.94752e-06
2.74944e-08
4.94933e-06
5.20665e-08
4.94719e-06
5.30766e-08
4.91871e-06
9.85737e-08
4.87521e-06
1.13262e-07
1.30949e-07
4.83866e-06
5.19566e-06
-8.70391e-08
5.20701e-06
-3.40181e-08
5.20261e-06
-1.97299e-08
5.20671e-06
-7.34631e-09
5.19816e-06
-7.98226e-09
5.20482e-06
-2.54186e-08
5.19546e-06
-1.55635e-08
5.20629e-06
-2.84009e-08
5.19377e-06
-1.17904e-08
5.20847e-06
-2.6028e-08
5.19172e-06
-6.90854e-09
5.21014e-06
-2.38447e-08
5.18943e-06
-3.24577e-09
5.21148e-06
-2.16957e-08
5.18768e-06
3.24936e-10
5.21149e-06
-1.88521e-08
5.18699e-06
3.9143e-09
5.21066e-06
-1.29767e-08
5.18671e-06
1.02953e-08
5.20939e-06
-3.76522e-09
5.18679e-06
2.00733e-08
5.20572e-06
9.93178e-09
5.18238e-06
3.45841e-08
5.19298e-06
2.7988e-08
5.17279e-06
4.7687e-08
5.18445e-06
4.03995e-08
5.19031e-06
4.72177e-08
5.26249e-06
2.63939e-08
5.34947e-06
2.62879e-08
2.7022e-08
5.45339e-06
5.44554e-06
-7.73944e-08
5.45219e-06
-4.06653e-08
5.45591e-06
-2.34451e-08
5.45014e-06
-1.58187e-09
5.45552e-06
-1.33628e-08
5.4461e-06
-1.59939e-08
5.45251e-06
-2.19776e-08
5.44579e-06
-2.16743e-08
5.45201e-06
-1.80146e-08
5.44697e-06
-2.09848e-08
5.45181e-06
-1.17489e-08
5.44777e-06
-1.98125e-08
5.45087e-06
-6.33954e-09
5.44667e-06
-1.74923e-08
5.44865e-06
-1.66309e-09
5.44425e-06
-1.44524e-08
5.44469e-06
3.4807e-09
5.44155e-06
-9.84214e-09
5.44258e-06
9.26441e-09
5.43871e-06
1.08642e-10
5.4394e-06
1.93779e-08
5.4353e-06
1.40371e-08
5.43563e-06
3.42538e-08
5.43362e-06
2.99984e-08
5.43483e-06
4.64716e-08
5.43411e-06
4.11271e-08
5.42349e-06
5.78301e-08
5.39721e-06
5.26758e-08
5.3587e-06
6.48042e-08
6.49299e-08
5.32079e-06
5.7069e-06
-6.83408e-08
5.71279e-06
-4.65506e-08
5.71491e-06
-2.5569e-08
5.7152e-06
-1.87083e-09
5.71497e-06
-1.31269e-08
5.71064e-06
-1.16658e-08
5.71094e-06
-2.22775e-08
5.70716e-06
-1.78978e-08
5.71143e-06
-2.2281e-08
5.70773e-06
-1.7283e-08
5.7133e-06
-1.73202e-08
5.70731e-06
-1.38206e-08
5.71353e-06
-1.25646e-08
5.70608e-06
-1.00433e-08
5.71334e-06
-8.91987e-09
5.70472e-06
-5.83627e-09
5.71239e-06
-4.18666e-09
5.70225e-06
3.00867e-10
5.70753e-06
3.98209e-09
5.69817e-06
9.47076e-09
5.70259e-06
1.49515e-08
5.69559e-06
2.10426e-08
5.70064e-06
2.91994e-08
5.69359e-06
3.70478e-08
5.69387e-06
4.61952e-08
5.6814e-06
5.35988e-08
5.6765e-06
6.27296e-08
5.65936e-06
6.98163e-08
5.64443e-06
7.97371e-08
8.78275e-08
5.62153e-06
5.98103e-06
-6.01786e-08
5.98135e-06
-4.68732e-08
5.9888e-06
-3.30203e-08
5.98766e-06
-7.27722e-10
5.99014e-06
-1.56021e-08
5.98165e-06
-3.1835e-09
5.98751e-06
-2.8133e-08
5.97891e-06
-9.29389e-09
5.98814e-06
-3.15139e-08
5.97926e-06
-8.40005e-09
5.98851e-06
-2.65711e-08
5.97955e-06
-4.86346e-09
5.98742e-06
-2.04393e-08
5.97894e-06
-1.56369e-09
5.98367e-06
-1.3643e-08
5.97606e-06
1.77504e-09
5.97867e-06
-6.80368e-09
5.97293e-06
6.04668e-09
5.97566e-06
1.25165e-09
5.9707e-06
1.44252e-08
5.97357e-06
1.20848e-08
5.96892e-06
2.5692e-08
5.97245e-06
2.56663e-08
5.96739e-06
4.21127e-08
5.96689e-06
4.66915e-08
5.95499e-06
6.54977e-08
5.94884e-06
6.88868e-08
5.93193e-06
8.67232e-08
5.91925e-06
9.24128e-08
1.02816e-07
5.90427e-06
6.26824e-06
-5.29258e-08
6.26555e-06
-4.41847e-08
6.27627e-06
-4.37386e-08
6.27058e-06
4.9597e-09
6.27869e-06
-2.371e-08
6.26611e-06
9.39417e-09
6.27571e-06
-3.77395e-08
6.26443e-06
1.98649e-09
6.27594e-06
-4.30223e-08
6.26486e-06
2.67962e-09
6.27595e-06
-3.76607e-08
6.26496e-06
6.13125e-09
6.27503e-06
-3.05141e-08
6.26439e-06
9.08315e-09
6.27336e-06
-2.26166e-08
6.26232e-06
1.28125e-08
6.26896e-06
-1.34387e-08
6.25833e-06
1.66768e-08
6.26363e-06
-4.05491e-09
6.25633e-06
2.17312e-08
6.25968e-06
8.73112e-09
6.25327e-06
3.21021e-08
6.25521e-06
2.37302e-08
6.25289e-06
4.44267e-08
6.2605e-06
3.90836e-08
6.25643e-06
6.95641e-08
6.2475e-06
7.7825e-08
6.21278e-06
1.21439e-07
6.16412e-06
1.41074e-07
1.29521e-07
6.13741e-06
6.56773e-06
-4.51876e-08
6.57734e-06
-5.37917e-08
6.56168e-06
-2.80817e-08
6.58071e-06
-1.40707e-08
6.56136e-06
-4.3607e-09
6.58177e-06
-1.10148e-08
6.55984e-06
-1.5813e-08
6.5816e-06
-1.97703e-08
6.55973e-06
-2.11544e-08
6.58174e-06
-1.93244e-08
6.55976e-06
-1.56823e-08
6.58108e-06
-1.51871e-08
6.55984e-06
-9.27895e-09
6.57991e-06
-1.09884e-08
6.56015e-06
-2.85125e-09
6.57809e-06
-5.13333e-09
6.5604e-06
4.25687e-09
6.57472e-06
2.355e-09
6.55804e-06
1.26299e-08
6.56669e-06
1.30769e-08
6.55437e-06
2.10495e-08
6.56118e-06
2.52912e-08
6.54806e-06
3.68531e-08
6.55031e-06
4.2175e-08
6.5417e-06
4.76916e-08
6.56932e-06
4.19442e-08
6.60368e-06
4.34643e-08
6.68523e-06
3.98943e-08
6.78536e-06
4.09449e-08
5.87016e-08
6.85618e-06
6.88453e-06
-3.99238e-08
6.87799e-06
-4.7252e-08
6.89043e-06
-4.05218e-08
6.88254e-06
-6.18015e-09
6.89373e-06
-1.55568e-08
6.88309e-06
-3.76571e-10
6.88983e-06
-2.25532e-08
6.88159e-06
-1.15288e-08
6.88722e-06
-2.67767e-08
6.88084e-06
-1.29525e-08
6.88676e-06
-2.16039e-08
6.87998e-06
-8.39839e-09
6.88499e-06
-1.42925e-08
6.87643e-06
-2.43054e-09
6.88067e-06
-7.08669e-09
6.87296e-06
2.57786e-09
6.8772e-06
1.41816e-11
6.87061e-06
8.94271e-09
6.87413e-06
9.11565e-09
6.86922e-06
1.79844e-08
6.87177e-06
1.84965e-08
6.87231e-06
2.47546e-08
6.88603e-06
2.31351e-08
6.89877e-06
2.94268e-08
6.90996e-06
3.65007e-08
6.89652e-06
5.53922e-08
6.8692e-06
7.07833e-08
6.81666e-06
9.24301e-08
6.75052e-06
1.07087e-07
8.19399e-08
6.72728e-06
7.21243e-06
-3.32152e-08
7.22461e-06
-5.94334e-08
7.20226e-06
-1.81679e-08
7.22649e-06
-3.04116e-08
7.20274e-06
8.19286e-09
7.22824e-06
-2.58825e-08
7.20223e-06
3.45737e-09
7.22741e-06
-3.67036e-08
7.2035e-06
-2.86536e-09
7.22582e-06
-3.52731e-08
7.20475e-06
-5.35858e-10
7.22395e-06
-2.75961e-08
7.20594e-06
3.71375e-09
7.22172e-06
-1.821e-08
7.20586e-06
8.76905e-09
7.21691e-06
-8.47272e-09
7.20177e-06
1.51619e-08
7.20927e-06
1.44325e-09
7.19793e-06
2.04523e-08
7.20487e-06
1.1043e-08
7.19689e-06
2.6475e-08
7.20184e-06
1.98102e-08
7.18968e-06
3.52958e-08
7.1901e-06
2.9002e-08
7.19027e-06
3.6331e-08
7.22177e-06
2.38901e-08
7.26884e-06
2.3717e-08
7.35244e-06
8.82691e-09
7.45595e-06
3.57625e-09