/*--------------------------------*- C++ -*----------------------------------*\
| =========                 |                                                 |
| \\      /  F ield         | OpenFOAM: The Open Source CFD Toolbox           |
|  \\    /   O peration     | Version:  v2006                                 |
|   \\  /    A nd           | Website:  www.openfoam.com                      |
|    \\/     M anipulation  |                                                 |
\*---------------------------------------------------------------------------*/
FoamFile
{
    version     2.0;
    format      ascii;
    class       volVectorField;
    location    "1.7";
    object      U;
}
// * * * * * * * * * * * * * * * * * * * * * * * * * * * * * * * * * * * * * //

dimensions      [0 1 -1 0 0 0 0];


internalField   nonuniform List<vector> 
26400
(
(0.909049 -0.00477615 0)
(1.09184 0.00446607 0)
(0.91311 -0.00429651 0)
(1.09154 0.0038523 0)
(0.91942 -0.00384829 0)
(1.09215 0.00331419 0)
(0.925062 -0.00346217 0)
(1.09262 0.00288432 0)
(0.930049 -0.00311976 0)
(1.09312 0.00246044 0)
(0.934352 -0.00282907 0)
(1.09362 0.00205269 0)
(0.937953 -0.00257464 0)
(1.09412 0.00170656 0)
(0.940819 -0.00233392 0)
(1.09469 0.00142271 0)
(0.9429 -0.00210603 0)
(1.09546 0.00117661 0)
(0.944089 -0.00189175 0)
(1.09652 0.000948758 0)
(0.94422 -0.00168884 0)
(1.09798 0.000730441 0)
(0.943052 -0.00147848 0)
(1.09992 0.000518341 0)
(0.940244 -0.0012059 0)
(1.10229 0.000296545 0)
(0.935278 -0.000675611 0)
(1.1046 2.46447e-05 0)
(0.926822 0.00110968 0)
(1.10575 0.000365807 0)
(0.915938 -0.00481644 0)
(1.08602 0.00446795 0)
(0.922516 -0.00436219 0)
(1.08567 0.00385115 0)
(0.930474 -0.00392517 0)
(1.08563 0.00331276 0)
(0.937466 -0.00354177 0)
(1.08506 0.002886 0)
(0.943799 -0.00320123 0)
(1.08416 0.00246577 0)
(0.949591 -0.00291148 0)
(1.08288 0.0020622 0)
(0.954953 -0.00265638 0)
(1.08115 0.00172099 0)
(0.960025 -0.00241385 0)
(1.07891 0.00144266 0)
(0.964974 -0.00218308 0)
(1.07603 0.00120398 0)
(0.969988 -0.00196444 0)
(1.07231 0.000987749 0)
(0.975299 -0.00175432 0)
(1.0674 0.000789114 0)
(0.981189 -0.0015282 0)
(1.0608 0.000604931 0)
(0.987958 -0.00121224 0)
(1.05178 0.000397861 0)
(0.995793 -0.000551399 0)
(1.0391 0.000212428 0)
(1.00438 0.00201869 0)
(1.0201 0.00151427 0)
(0.928114 -0.00486268 0)
(1.07425 0.00444415 0)
(0.937589 -0.00442439 0)
(1.07359 0.00382492 0)
(0.947684 -0.0039898 0)
(1.07249 0.00328688 0)
(0.956419 -0.00359858 0)
(1.0704 0.00285966 0)
(0.964341 -0.00324803 0)
(1.06763 0.00243612 0)
(0.971662 -0.00294446 0)
(1.06421 0.00202552 0)
(0.978546 -0.0026696 0)
(1.06017 0.00167132 0)
(0.985132 -0.00239949 0)
(1.05554 0.00137113 0)
(0.991509 -0.00212972 0)
(1.05037 0.00109864 0)
(0.997669 -0.00185523 0)
(1.04471 0.000832 0)
(1.0035 -0.00156595 0)
(1.03866 0.000563704 0)
(1.00876 -0.00123707 0)
(1.03241 0.00029844 0)
(1.01304 -0.000814656 0)
(1.02614 4.91533e-05 0)
(1.01567 -0.000134279 0)
(1.01992 5.4923e-05 0)
(1.01545 0.00216493 0)
(1.01419 0.00376089 0)
(0.943421 -0.00489568 0)
(1.05836 0.00436894 0)
(0.954386 -0.00445853 0)
(1.05721 0.00374892 0)
(0.965621 -0.00401149 0)
(1.05521 0.00320994 0)
(0.975109 -0.00359959 0)
(1.05209 0.00277748 0)
(0.983427 -0.0032265 0)
(1.04831 0.00234419 0)
(0.990759 -0.00289784 0)
(1.04411 0.00191971 0)
(0.997221 -0.00259477 0)
(1.03969 0.00154722 0)
(1.00289 -0.00229373 0)
(1.03526 0.00122559 0)
(1.00775 -0.00199108 0)
(1.03103 0.000931774 0)
(1.01171 -0.00168348 0)
(1.02713 0.000648211 0)
(1.01465 -0.0013636 0)
(1.02368 0.000375067 0)
(1.01645 -0.00101248 0)
(1.02067 0.000128422 0)
(1.01698 -0.000574243 0)
(1.01799 -4.31083e-05 0)
(1.01607 0.000154292 0)
(1.01519 0.000239358 0)
(1.01339 0.00254384 0)
(1.01233 0.00593909 0)
(0.95919 -0.00490753 0)
(1.04143 0.00425432 0)
(0.969558 -0.0044625 0)
(1.03992 0.00363389 0)
(0.980177 -0.00399661 0)
(1.03768 0.00309438 0)
(0.988797 -0.00356084 0)
(1.03459 0.00265855 0)
(0.99593 -0.00316445 0)
(1.03119 0.00222002 0)
(1.00172 -0.00281418 0)
(1.02778 0.0017898 0)
(1.00631 -0.00249198 0)
(1.02463 0.00141172 0)
(1.00985 -0.00217471 0)
(1.02191 0.00108663 0)
(1.01241 -0.00185851 0)
(1.01967 0.00079404 0)
(1.01406 -0.00154018 0)
(1.01787 0.000519099 0)
(1.01486 -0.00121315 0)
(1.01639 0.000266386 0)
(1.01486 -0.000859774 0)
(1.01504 5.7086e-05 0)
(1.0141 -0.000455121 0)
(1.01353 -2.52674e-06 0)
(1.01247 2.67578e-05 0)
(1.01144 0.00109416 0)
(1.00989 0.00164908 0)
(1.00916 0.00843188 0)
(0.973041 -0.00489626 0)
(1.02637 0.00412652 0)
(0.981122 -0.00444176 0)
(1.02488 0.00350647 0)
(0.989684 -0.00395977 0)
(1.02308 0.00296912 0)
(0.996286 -0.00350518 0)
(1.02083 0.00253557 0)
(1.0014 -0.00309186 0)
(1.01859 0.00209972 0)
(1.00519 -0.002728 0)
(1.01658 0.00167273 0)
(1.00786 -0.00239583 0)
(1.01494 0.0012976 0)
(1.00966 -0.00207086 0)
(1.01371 0.000975671 0)
(1.01077 -0.00174724 0)
(1.0128 0.000688039 0)
(1.01131 -0.00142139 0)
(1.01207 0.00042265 0)
(1.01134 -0.00108878 0)
(1.01136 0.000190202 0)
(1.0109 -0.000733649 0)
(1.01048 2.07964e-05 0)
(1.00996 -0.000355998 0)
(1.00922 4.67726e-05 0)
(1.00839 0.000223499 0)
(1.0073 0.00105861 0)
(1.00622 0.00260528 0)
(1.0055 0.00619744 0)
(0.983618 -0.00486442 0)
(1.01493 0.00400701 0)
(0.988725 -0.00440374 0)
(1.01376 0.00338838 0)
(0.994723 -0.00391222 0)
(1.01269 0.00285476 0)
(0.999093 -0.00344538 0)
(1.01145 0.00242616 0)
(1.00229 -0.00302049 0)
(1.01032 0.00199525 0)
(1.00448 -0.00264697 0)
(1.00939 0.00157174 0)
(1.0059 -0.00230652 0)
(1.00871 0.00119647 0)
(1.00678 -0.00197221 0)
(1.00825 0.000870399 0)
(1.00728 -0.00163502 0)
(1.0079 0.00057549 0)
(1.00746 -0.00128994 0)
(1.00756 0.000301516 0)
(1.00732 -0.000932858 0)
(1.00708 6.21523e-05 0)
(1.00683 -0.000537228 0)
(1.00635 -0.000108076 0)
(1.00591 -0.000103298 0)
(1.00519 -0.000104542 0)
(1.00441 0.000769975 0)
(1.00345 0.000589254 0)
(1.00239 0.0040916 0)
(1.00196 0.0046659 0)
(0.990755 -0.00481681 0)
(1.00733 0.00390521 0)
(0.993152 -0.00435416 0)
(1.00656 0.00328806 0)
(0.996911 -0.00385884 0)
(1.00613 0.00275648 0)
(0.999498 -0.00338396 0)
(1.0056 0.00233105 0)
(1.00133 -0.00294999 0)
(1.00515 0.00190242 0)
(1.00254 -0.00256805 0)
(1.0048 0.00147916 0)
(1.00328 -0.00222006 0)
(1.00454 0.00110112 0)
(1.00374 -0.00187823 0)
(1.00437 0.000770976 0)
(1.00399 -0.00153295 0)
(1.00422 0.000474747 0)
(1.00404 -0.00118135 0)
(1.00399 0.000207981 0)
(1.00384 -0.000824694 0)
(1.00359 -9.78702e-06 0)
(1.00334 -0.000456509 0)
(1.0029 -0.000106992 0)
(1.00243 -7.86127e-05 0)
(1.0018 0.000142443 0)
(1.00098 0.000290371 0)
(1.0002 0.00185966 0)
(0.99922 0.00259829 0)
(0.998987 0.0102084 0)
(0.99509 -0.00475779 0)
(1.00281 0.00381936 0)
(0.995527 -0.00429565 0)
(1.00235 0.00320259 0)
(0.997729 -0.00379976 0)
(1.00232 0.00266911 0)
(0.999155 -0.00331839 0)
(1.00216 0.00224285 0)
(1.00016 -0.00287558 0)
(1.00201 0.00181218 0)
(1.00081 -0.00248455 0)
(1.00188 0.00138513 0)
(1.00119 -0.00212791 0)
(1.00177 0.00100131 0)
(1.00142 -0.00177773 0)
(1.00168 0.000665673 0)
(1.00153 -0.00142427 0)
(1.00156 0.00036856 0)
(1.00148 -0.0010672 0)
(1.00135 0.000111429 0)
(1.00124 -0.000705633 0)
(1.00096 -8.5893e-05 0)
(1.00071 -0.000352089 0)
(1.00028 -0.000133082 0)
(0.999798 2.18871e-05 0)
(0.999145 0.000201043 0)
(0.998442 0.000408302 0)
(0.997611 0.00204298 0)
(0.997192 0.0023227 0)
(0.996672 0.0100193 0)
(0.997516 -0.00468999 0)
(1.00033 0.003742 0)
(0.99676 -0.00422867 0)
(1.00006 0.00312432 0)
(0.99804 -0.00373356 0)
(1.00023 0.00258488 0)
(0.998801 -0.00324579 0)
(1.0002 0.00215427 0)
(0.999338 -0.00279341 0)
(1.00016 0.00171778 0)
(0.999667 -0.00239156 0)
(1.0001 0.00128276 0)
(0.999838 -0.00202295 0)
(1.00002 0.000888115 0)
(0.999914 -0.00165917 0)
(0.999932 0.000540126 0)
(0.99991 -0.00128967 0)
(0.999808 0.000232917 0)
(0.999786 -0.000915706 0)
(0.999581 -2.93574e-05 0)
(0.999482 -0.000533194 0)
(0.99917 -0.000224166 0)
(0.998921 -0.000141179 0)
(0.998465 -0.000283106 0)
(0.997997 0.00033256 0)
(0.997328 -0.000104691 0)
(0.996677 0.00138962 0)
(0.995856 0.000763212 0)
(0.995623 0.00391995 0)
(0.995285 0.00264061 0)
(0.998798 -0.00461469 0)
(0.999042 0.00366543 0)
(0.997402 -0.00415284 0)
(0.998871 0.00304627 0)
(0.998191 -0.00365905 0)
(0.999115 0.00249829 0)
(0.998597 -0.00316516 0)
(0.999136 0.00206243 0)
(0.998873 -0.00270395 0)
(0.999125 0.00162059 0)
(0.999016 -0.0022937 0)
(0.999081 0.00118101 0)
(0.999053 -0.00191869 0)
(0.999006 0.000784124 0)
(0.999026 -0.00155268 0)
(0.998908 0.000439954 0)
(0.998938 -0.00118788 0)
(0.998762 0.000149804 0)
(0.998747 -0.000828579 0)
(0.998512 -7.97065e-05 0)
(0.998393 -0.000481119 0)
(0.99808 -0.000209973 0)
(0.997798 -0.000140587 0)
(0.997359 -0.00017974 0)
(0.996854 0.000304515 0)
(0.996246 0.000141782 0)
(0.995519 0.00137423 0)
(0.994853 0.00101356 0)
(0.994302 0.00403216 0)
(0.994754 0.00165677 0)
(0.999452 -0.00453234 0)
(0.998395 0.00358392 0)
(0.997738 -0.00406722 0)
(0.998271 0.00296315 0)
(0.998279 -0.0035744 0)
(0.998552 0.00240411 0)
(0.998503 -0.00307325 0)
(0.998588 0.00196076 0)
(0.998637 -0.00260075 0)
(0.998586 0.00151005 0)
(0.998676 -0.00217803 0)
(0.998548 0.0010606 0)
(0.998636 -0.00179015 0)
(0.998469 0.000653651 0)
(0.998546 -0.0014116 0)
(0.998356 0.000301467 0)
(0.998405 -0.00103633 0)
(0.99819 9.76327e-06 0)
(0.998173 -0.000666137 0)
(0.997916 -0.000212831 0)
(0.997789 -0.000320639 0)
(0.997461 -0.000314861 0)
(0.997177 1.25103e-05 0)
(0.996724 -0.000242526 0)
(0.996233 0.000447662 0)
(0.995615 0.000225639 0)
(0.99493 0.00128886 0)
(0.994309 0.00165545 0)
(0.993785 0.0039577 0)
(0.99473 0.00611818 0)
(0.999775 -0.00444327 0)
(0.998082 0.00349446 0)
(0.99791 -0.00397147 0)
(0.997985 0.00287303 0)
(0.998331 -0.00348008 0)
(0.998285 0.00230233 0)
(0.998463 -0.00297279 0)
(0.998327 0.00185309 0)
(0.998523 -0.00249149 0)
(0.99833 0.00139727 0)
(0.998506 -0.00206176 0)
(0.998296 0.000945472 0)
(0.998426 -0.00167096 0)
(0.998215 0.000541709 0)
(0.998301 -0.00129704 0)
(0.998094 0.000203665 0)
(0.998129 -0.000938054 0)
(0.997915 -5.92805e-05 0)
(0.99787 -0.000601 0)
(0.997628 -0.000229355 0)
(0.99747 -0.000302521 0)
(0.997159 -0.000250672 0)
(0.996848 -2.12589e-05 0)
(0.996416 -4.54296e-05 0)
(0.995914 0.000279466 0)
(0.995317 0.000639999 0)
(0.994674 0.00100383 0)
(0.994132 0.00244874 0)
(0.993863 0.00365325 0)
(0.994744 0.0103061 0)
(0.999933 -0.00434734 0)
(0.997938 0.00339472 0)
(0.998 -0.00386411 0)
(0.997856 0.00277317 0)
(0.998363 -0.00337356 0)
(0.998169 0.0021889 0)
(0.998452 -0.0028593 0)
(0.998216 0.00173256 0)
(0.998472 -0.00236741 0)
(0.998222 0.00126966 0)
(0.998428 -0.00192827 0)
(0.998191 0.000812885 0)
(0.998327 -0.0015309 0)
(0.99811 0.000408875 0)
(0.998186 -0.00115703 0)
(0.997984 7.98266e-05 0)
(0.998 -0.000805383 0)
(0.997797 -0.000164296 0)
(0.997731 -0.000493633 0)
(0.997499 -0.000295033 0)
(0.997326 -0.000220038 0)
(0.997021 -0.000268853 0)
(0.996711 5.60033e-05 0)
(0.996265 -1.36479e-05 0)
(0.995805 0.000481008 0)
(0.995189 0.000646293 0)
(0.994639 0.00150353 0)
(0.99413 0.00237755 0)
(0.994387 0.00399411 0)
(0.995063 0.00644956 0)
(1.00001 -0.00424453 0)
(0.997872 0.00328367 0)
(0.998055 -0.00374462 0)
(0.9978 0.00266308 0)
(0.99839 -0.00325531 0)
(0.998121 0.00206477 0)
(0.998459 -0.00273542 0)
(0.998172 0.00160275 0)
(0.998461 -0.00223493 0)
(0.99818 0.00113612 0)
(0.998401 -0.00179107 0)
(0.998154 0.000680305 0)
(0.99829 -0.00139459 0)
(0.998076 0.000286126 0)
(0.998139 -0.00103117 0)
(0.997951 -2.20669e-05 0)
(0.997943 -0.000699363 0)
(0.997763 -0.000232175 0)
(0.997668 -0.000420176 0)
(0.997463 -0.000311963 0)
(0.99726 -0.000180477 0)
(0.996987 -0.000239303 0)
(0.996647 9.79669e-05 0)
(0.996254 -1.35201e-05 0)
(0.995753 0.000721257 0)
(0.995227 0.000585589 0)
(0.994657 0.00207743 0)
(0.994254 0.00227674 0)
(0.994206 0.00461149 0)
(0.995518 0.00287991 0)
(1.00006 -0.0041344 0)
(0.99784 0.00315985 0)
(0.998095 -0.00361155 0)
(0.997771 0.00254081 0)
(0.99842 -0.00312329 0)
(0.998095 0.00192693 0)
(0.998483 -0.00259791 0)
(0.998147 0.00145909 0)
(0.998477 -0.00208927 0)
(0.998155 0.000989797 0)
(0.998412 -0.00164162 0)
(0.998128 0.000536103 0)
(0.998299 -0.00124872 0)
(0.99805 0.000155498 0)
(0.998148 -0.000902892 0)
(0.997922 -0.000123589 0)
(0.997954 -0.000608183 0)
(0.997729 -0.000284332 0)
(0.997682 -0.000374627 0)
(0.997425 -0.000298869 0)
(0.997282 -0.000181588 0)
(0.996949 -0.000152954 0)
(0.996676 6.5607e-05 0)
(0.996235 0.000215469 0)
(0.995811 0.000557728 0)
(0.995266 0.00104634 0)
(0.994801 0.00182284 0)
(0.994404 0.00307946 0)
(0.994389 0.00482328 0)
(0.996179 0.00718867 0)
(1.00009 -0.00401745 0)
(0.997829 0.00302374 0)
(0.998125 -0.00346571 0)
(0.997761 0.00240849 0)
(0.998442 -0.00298044 0)
(0.998088 0.00178062 0)
(0.998503 -0.00245366 0)
(0.998142 0.00131187 0)
(0.998491 -0.00194268 0)
(0.99815 0.000847208 0)
(0.998422 -0.0014999 0)
(0.998125 0.00040715 0)
(0.998307 -0.00112469 0)
(0.998049 5.59948e-05 0)
(0.998156 -0.000818527 0)
(0.997922 -0.000172291 0)
(0.997963 -0.000583028 0)
(0.997729 -0.000264153 0)
(0.997694 -0.000410381 0)
(0.997425 -0.000204771 0)
(0.997299 -0.000268323 0)
(0.996955 1.81782e-05 0)
(0.996712 -9.74018e-05 0)
(0.996254 0.000581597 0)
(0.995883 0.000310537 0)
(0.995343 0.00164799 0)
(0.994977 0.00146115 0)
(0.994666 0.00392577 0)
(0.994903 0.00491327 0)
(0.996394 0.0117348 0)
(1.0001 -0.0038918 0)
(0.997835 0.00287161 0)
(0.998142 -0.00330309 0)
(0.997769 0.0022606 0)
(0.998453 -0.00282052 0)
(0.998101 0.0016176 0)
(0.998513 -0.00229283 0)
(0.998158 0.00114838 0)
(0.998496 -0.00177971 0)
(0.998168 0.000689908 0)
(0.998424 -0.00134305 0)
(0.998144 0.000265049 0)
(0.998309 -0.00098555 0)
(0.998067 -5.63668e-05 0)
(0.998161 -0.000705764 0)
(0.997939 -0.000243414 0)
(0.997973 -0.000510838 0)
(0.997744 -0.000288602 0)
(0.997711 -0.000361494 0)
(0.997439 -0.000210453 0)
(0.997327 -0.000196109 0)
(0.996968 -7.89485e-06 0)
(0.996766 9.88937e-05 0)
(0.996287 0.000428702 0)
(0.995981 0.000752341 0)
(0.995432 0.00144153 0)
(0.995179 0.00224688 0)
(0.994971 0.00352272 0)
(0.99578 0.00497759 0)
(0.996816 0.00698502 0)
(1.00011 -0.00375877 0)
(0.997851 0.00270579 0)
(0.998158 -0.00312701 0)
(0.997787 0.0021004 0)
(0.998463 -0.00264884 0)
(0.998125 0.00144222 0)
(0.998522 -0.00212324 0)
(0.998187 0.000974966 0)
(0.998499 -0.00161292 0)
(0.9982 0.000528564 0)
(0.998422 -0.00119048 0)
(0.998179 0.000127839 0)
(0.998306 -0.000883415 0)
(0.998106 -0.000149064 0)
(0.998157 -0.000648857 0)
(0.997979 -0.000282787 0)
(0.997971 -0.000492997 0)
(0.997787 -0.000283078 0)
(0.997711 -0.000353274 0)
(0.997488 -0.000191604 0)
(0.997329 -0.000154834 0)
(0.997038 -2.79587e-05 0)
(0.996774 0.000267507 0)
(0.996391 0.00029457 0)
(0.996036 0.00114755 0)
(0.995621 0.00128993 0)
(0.995323 0.00296837 0)
(0.995179 0.00331599 0)
(0.99553 0.00514156 0)
(0.997346 0.00277049 0)
(1.00012 -0.00362334 0)
(0.997863 0.0025341 0)
(0.998182 -0.00294513 0)
(0.997795 0.00194411 0)
(0.998485 -0.0024806 0)
(0.998135 0.00128299 0)
(0.998549 -0.00197122 0)
(0.998196 0.000834928 0)
(0.998527 -0.00148108 0)
(0.998207 0.000420418 0)
(0.998452 -0.00109002 0)
(0.998181 6.9936e-05 0)
(0.998341 -0.000800812 0)
(0.998104 -0.000164934 0)
(0.9982 -0.000627419 0)
(0.997974 -0.000243822 0)
(0.998022 -0.000517998 0)
(0.99778 -0.000197257 0)
(0.997768 -0.000406011 0)
(0.997485 -5.65194e-05 0)
(0.997392 -0.000219309 0)
(0.997048 0.000175128 0)
(0.996853 0.000112395 0)
(0.996444 0.000661534 0)
(0.996173 0.000920035 0)
(0.995761 0.00182646 0)
(0.995563 0.00267203 0)
(0.9954 0.00426948 0)
(0.995712 0.00579807 0)
(0.998147 0.00770687 0)
(1.00012 -0.00346154 0)
(0.997891 0.00231763 0)
(0.998194 -0.00271718 0)
(0.997817 0.00172855 0)
(0.998492 -0.00225049 0)
(0.998159 0.00104293 0)
(0.99856 -0.00173901 0)
(0.998222 0.000593619 0)
(0.998538 -0.00125085 0)
(0.998232 0.000190044 0)
(0.998463 -0.000885088 0)
(0.998207 -0.000130445 0)
(0.998354 -0.000634196 0)
(0.998125 -0.00031222 0)
(0.998219 -0.000513087 0)
(0.997994 -0.000327781 0)
(0.998046 -0.000466033 0)
(0.997803 -0.000216734 0)
(0.997799 -0.000433091 0)
(0.997514 1.63705e-05 0)
(0.997432 -0.000350356 0)
(0.997086 0.000445037 0)
(0.996917 -0.000110973 0)
(0.996519 0.00122962 0)
(0.996296 0.000572903 0)
(0.995927 0.00256792 0)
(0.995834 0.00215562 0)
(0.995788 0.00531652 0)
(0.996287 0.00625843 0)
(0.998044 0.0129941 0)
(1.0001 -0.00333235 0)
(0.99795 0.00215008 0)
(0.998183 -0.00254094 0)
(0.997871 0.00159592 0)
(0.998476 -0.00211034 0)
(0.998216 0.000929685 0)
(0.998549 -0.00164797 0)
(0.998281 0.000533124 0)
(0.998527 -0.0012166 0)
(0.998288 0.000204704 0)
(0.998454 -0.00093641 0)
(0.998257 -3.6952e-05 0)
(0.998353 -0.000801698 0)
(0.998171 -0.00012059 0)
(0.998227 -0.000742059 0)
(0.998034 -9.11186e-05 0)
(0.998064 -0.000696269 0)
(0.997838 -2.58345e-06 0)
(0.997829 -0.000600205 0)
(0.997547 0.000140449 0)
(0.997485 -0.000380975 0)
(0.99713 0.000441031 0)
(0.997011 0.000107696 0)
(0.996598 0.00106761 0)
(0.996443 0.00105511 0)
(0.996085 0.0023824 0)
(0.99613 0.00301263 0)
(0.996263 0.00477273 0)
(0.997373 0.00578647 0)
(0.998327 0.00708414 0)
(1.00007 -0.00313362 0)
(0.998021 0.00187179 0)
(0.998174 -0.00225241 0)
(0.997935 0.00131936 0)
(0.99846 -0.0018151 0)
(0.998287 0.000627619 0)
(0.998539 -0.00135046 0)
(0.998354 0.000230736 0)
(0.998516 -0.000909335 0)
(0.998359 -8.09918e-05 0)
(0.998444 -0.000602892 0)
(0.998326 -0.000331584 0)
(0.998346 -0.000425133 0)
(0.99824 -0.000460274 0)
(0.998221 -0.000287967 0)
(0.998107 -0.000527904 0)
(0.998056 -0.000111125 0)
(0.997921 -0.000564715 0)
(0.997818 0.000167128 0)
(0.997649 -0.000574289 0)
(0.997477 0.000563903 0)
(0.997263 -0.000472529 0)
(0.997021 0.00121613 0)
(0.996778 -4.08829e-05 0)
(0.996539 0.0023403 0)
(0.99639 0.00125249 0)
(0.996321 0.00448287 0)
(0.996447 0.00355567 0)
(0.996785 0.00650649 0)
(0.998828 0.00253407 0)
(1.00006 -0.00300087 0)
(0.998075 0.00169149 0)
(0.99819 -0.00206821 0)
(0.997975 0.0011854 0)
(0.998475 -0.0016787 0)
(0.998326 0.000523247 0)
(0.998567 -0.00128679 0)
(0.998391 0.000193538 0)
(0.998551 -0.000948916 0)
(0.99839 -6.84704e-06 0)
(0.998483 -0.000790131 0)
(0.998349 -0.000103747 0)
(0.998392 -0.000773405 0)
(0.998259 -8.00536e-05 0)
(0.998273 -0.000803891 0)
(0.998126 2.92987e-05 0)
(0.998113 -0.00083417 0)
(0.997945 0.000226625 0)
(0.997881 -0.000828766 0)
(0.997676 0.00060379 0)
(0.997553 -0.000746986 0)
(0.997309 0.00114469 0)
(0.997132 -0.000452087 0)
(0.996877 0.00207469 0)
(0.996728 0.000401736 0)
(0.996592 0.00354118 0)
(0.996647 0.00201354 0)
(0.996797 0.00623233 0)
(0.997191 0.00608985 0)
(0.999042 0.0136055 0)
(1.00004 -0.00279788 0)
(0.998154 0.00141141 0)
(0.99819 -0.00178059 0)
(0.998041 0.000931623 0)
(0.998467 -0.00140906 0)
(0.998396 0.000276557 0)
(0.998569 -0.00105888 0)
(0.998461 -2.08577e-05 0)
(0.998557 -0.000766132 0)
(0.998451 -0.000172148 0)
(0.998496 -0.000658225 0)
(0.998403 -0.000229334 0)
(0.998413 -0.000636256 0)
(0.998307 -0.000229759 0)
(0.998302 -0.000610488 0)
(0.998169 -0.000217436 0)
(0.998155 -0.000534363 0)
(0.997982 -0.000173807 0)
(0.997951 -0.000392607 0)
(0.997716 -3.17031e-06 0)
(0.997648 -4.85859e-05 0)
(0.99736 0.000434286 0)
(0.997277 0.000514378 0)
(0.996978 0.00121701 0)
(0.996922 0.0015816 0)
(0.996759 0.00267285 0)
(0.99701 0.00345405 0)
(0.99743 0.00482631 0)
(0.998673 0.00581026 0)
(0.99925 0.00720761 0)
(1.00003 -0.00264749 0)
(0.998233 0.00119234 0)
(0.998206 -0.00156466 0)
(0.998107 0.000764594 0)
(0.998471 -0.00123413 0)
(0.998467 0.000142965 0)
(0.99858 -0.000919121 0)
(0.998537 -0.000108837 0)
(0.99857 -0.000662467 0)
(0.998527 -0.00021908 0)
(0.998506 -0.000549693 0)
(0.99848 -0.000294027 0)
(0.998419 -0.000468664 0)
(0.998391 -0.000358996 0)
(0.9983 -0.000298614 0)
(0.998265 -0.000457303 0)
(0.998144 -3.30991e-05 0)
(0.998094 -0.000575463 0)
(0.997932 0.000375682 0)
(0.997857 -0.000703278 0)
(0.997651 0.000956395 0)
(0.997532 -0.000646742 0)
(0.997304 0.00180448 0)
(0.997204 -0.000196903 0)
(0.997062 0.00311054 0)
(0.997111 0.00123071 0)
(0.997179 0.00537522 0)
(0.997451 0.00336323 0)
(0.997806 0.0064899 0)
(0.999768 0.000929479 0)
(1.00007 -0.00241199 0)
(0.998254 0.000872712 0)
(0.998287 -0.00125858 0)
(0.998104 0.000488727 0)
(0.998545 -0.000972053 0)
(0.998465 -0.000103453 0)
(0.998668 -0.000746777 0)
(0.998532 -0.000265398 0)
(0.998664 -0.000594076 0)
(0.998515 -0.000250128 0)
(0.998603 -0.000634 0)
(0.998467 -0.000173414 0)
(0.998518 -0.000762625 0)
(0.998385 -2.6905e-05 0)
(0.998399 -0.000930725 0)
(0.998266 0.000235254 0)
(0.998243 -0.00105806 0)
(0.99811 0.000572083 0)
(0.99803 -0.00108836 0)
(0.997886 0.000983421 0)
(0.997747 -0.000958874 0)
(0.997599 0.00150864 0)
(0.997442 -0.000465099 0)
(0.997339 0.00233867 0)
(0.997298 0.000524696 0)
(0.997378 0.00374632 0)
(0.997581 0.00250179 0)
(0.997826 0.00689789 0)
(0.998109 0.00735163 0)
(0.999891 0.0135453 0)
(1.00008 -0.0023137 0)
(0.998322 0.000737708 0)
(0.998329 -0.00112875 0)
(0.998144 0.000437445 0)
(0.998577 -0.000911528 0)
(0.998503 -0.000123618 0)
(0.998718 -0.000792467 0)
(0.998569 -0.000222572 0)
(0.998723 -0.000684381 0)
(0.998541 -0.000173768 0)
(0.998667 -0.000719083 0)
(0.998482 -0.000103479 0)
(0.99859 -0.000817695 0)
(0.998385 2.78601e-05 0)
(0.998491 -0.000954628 0)
(0.99826 0.000286674 0)
(0.998353 -0.00107403 0)
(0.998098 0.000637196 0)
(0.998162 -0.00113425 0)
(0.997887 0.00111717 0)
(0.997912 -0.00101275 0)
(0.997633 0.00179664 0)
(0.997638 -0.000568699 0)
(0.997423 0.00273709 0)
(0.997541 0.000334221 0)
(0.997595 0.00397972 0)
(0.998131 0.0019288 0)
(0.998776 0.00660961 0)
(0.999796 0.0066935 0)
(0.999316 0.0134969 0)
(1.00003 -0.0020374 0)
(0.998458 0.000352458 0)
(0.998326 -0.000729925 0)
(0.998249 0.000101193 0)
(0.99856 -0.00048503 0)
(0.998607 -0.000456408 0)
(0.998717 -0.000378232 0)
(0.998676 -0.00059702 0)
(0.998726 -0.00021006 0)
(0.998644 -0.000667221 0)
(0.998669 -8.43246e-05 0)
(0.998586 -0.000796162 0)
(0.998595 6.36361e-05 0)
(0.998495 -0.000928916 0)
(0.998499 0.000284545 0)
(0.99837 -0.00105884 0)
(0.998367 0.000556311 0)
(0.998213 -0.00111174 0)
(0.998188 0.000895205 0)
(0.998011 -0.00101076 0)
(0.997961 0.00133164 0)
(0.997779 -0.000655485 0)
(0.997736 0.00198435 0)
(0.99762 0.000116245 0)
(0.997695 0.00305527 0)
(0.997843 0.00122934 0)
(0.998387 0.00410993 0)
(0.999199 0.00167636 0)
(1.00027 0.00349614 0)
(0.999805 0.000115739 0)
(1.00001 -0.00190403 0)
(0.998585 0.000169582 0)
(0.998355 -0.000705116 0)
(0.99834 9.15534e-05 0)
(0.998576 -0.000651635 0)
(0.998691 -0.00031242 0)
(0.998748 -0.000661192 0)
(0.998763 -0.00035015 0)
(0.99876 -0.000552978 0)
(0.998731 -0.000358033 0)
(0.998698 -0.000460898 0)
(0.998675 -0.000443363 0)
(0.99862 -0.00034429 0)
(0.99859 -0.000549487 0)
(0.998519 -0.00017834 0)
(0.998476 -0.000674168 0)
(0.998392 8.8906e-05 0)
(0.998332 -0.000704621 0)
(0.998227 0.000450483 0)
(0.998146 -0.000562164 0)
(0.998031 0.000946444 0)
(0.997947 -0.000113805 0)
(0.997858 0.00169135 0)
(0.997847 0.000739731 0)
(0.997867 0.00274251 0)
(0.998036 0.00184813 0)
(0.998297 0.00346427 0)
(0.998739 0.00155562 0)
(0.99934 0.0018852 0)
(1.00154 0.000168357 0)
(1.00003 -0.00174917 0)
(0.998663 -4.16148e-05 0)
(0.998437 -0.000511233 0)
(0.998373 -4.43223e-05 0)
(0.998644 -0.00026591 0)
(0.998726 -0.000541069 0)
(0.998833 -0.000348516 0)
(0.998805 -0.000606181 0)
(0.998846 -0.00026947 0)
(0.998772 -0.00060134 0)
(0.99878 -0.000213842 0)
(0.998719 -0.000604926 0)
(0.998701 -0.000179459 0)
(0.998637 -0.000572279 0)
(0.9986 -0.000136774 0)
(0.998533 -0.000502061 0)
(0.998478 -7.14269e-05 0)
(0.998401 -0.000362493 0)
(0.998327 0.000100493 0)
(0.998236 -6.66051e-05 0)
(0.998162 0.000481188 0)
(0.998073 0.000480866 0)
(0.998038 0.00117168 0)
(0.99801 0.00130945 0)
(0.998082 0.00205884 0)
(0.998174 0.0023913 0)
(0.998401 0.00320647 0)
(0.998873 0.003858 0)
(1.00001 0.00490609 0)
(1.00377 0.00611621 0)
(1.00003 -0.0014464 0)
(0.998784 -0.000373068 0)
(0.998503 -0.000309001 0)
(0.998467 -0.000168408 0)
(0.998678 -0.000268848 0)
(0.998791 -0.000438748 0)
(0.998888 -0.000506059 0)
(0.998879 -0.000388045 0)
(0.998906 -0.000600277 0)
(0.998846 -0.000221191 0)
(0.998842 -0.000717834 0)
(0.99879 -2.5735e-05 0)
(0.998768 -0.000879478 0)
(0.998707 0.000199301 0)
(0.998673 -0.0010347 0)
(0.9986 0.000481578 0)
(0.998557 -0.00109977 0)
(0.998478 0.000781473 0)
(0.998423 -0.000969636 0)
(0.998341 0.00118834 0)
(0.998286 -0.000554177 0)
(0.998224 0.00178174 0)
(0.998191 0.000162187 0)
(0.998196 0.00249631 0)
(0.998289 0.00101039 0)
(0.998493 0.00351044 0)
(0.998874 0.002506 0)
(0.999417 0.00637214 0)
(1.00021 0.00742391 0)
(1.00286 0.0124481 0)
(1 -0.00156914 0)
(0.998903 -0.000258083 0)
(0.998571 -0.000580056 0)
(0.998526 0.000117748 0)
(0.998737 -0.000464371 0)
(0.998853 -0.000224304 0)
(0.998958 -0.000655185 0)
(0.998942 -0.000292631 0)
(0.998989 -0.000665681 0)
(0.998901 -0.000250802 0)
(0.998933 -0.00065946 0)
(0.998836 -0.00020776 0)
(0.998867 -0.000670541 0)
(0.998748 -0.000166956 0)
(0.998784 -0.000669008 0)
(0.998651 -9.27568e-05 0)
(0.998676 -0.000552894 0)
(0.99855 9.38932e-05 0)
(0.998558 -0.000245349 0)
(0.998445 0.000478946 0)
(0.998448 0.000297613 0)
(0.998361 0.00109865 0)
(0.998373 0.00105691 0)
(0.998351 0.00193635 0)
(0.998525 0.00203423 0)
(0.998733 0.00294143 0)
(0.999475 0.00309935 0)
(1.00064 0.00384119 0)
(1.00227 0.00395184 0)
(1.00292 0.00510099 0)
(0.999972 -0.000938433 0)
(0.999068 -0.000940624 0)
(0.998627 -6.62196e-06 0)
(0.99868 -0.000478383 0)
(0.998737 0.00025992 0)
(0.99897 -0.000892849 0)
(0.998975 0.000111941 0)
(0.999074 -0.00110534 0)
(0.999008 0.000224608 0)
(0.999039 -0.00119095 0)
(0.998948 0.000401923 0)
(0.998977 -0.00127972 0)
(0.998879 0.000571398 0)
(0.998892 -0.00134833 0)
(0.998794 0.000748591 0)
(0.9988 -0.00137029 0)
(0.998705 0.000948541 0)
(0.998715 -0.00124496 0)
(0.998622 0.00121336 0)
(0.998633 -0.000894095 0)
(0.998555 0.0016813 0)
(0.99858 -0.000237858 0)
(0.99854 0.00244198 0)
(0.998631 0.000811917 0)
(0.998718 0.00351917 0)
(0.998979 0.00184474 0)
(0.99929 0.0041396 0)
(0.999813 0.00132518 0)
(1.00074 0.00211296 0)
(1.00409 -0.000453181 0)
(1.00001 -0.00147138 0)
(0.99913 -0.00024317 0)
(0.998767 -0.000853101 0)
(0.998698 0.000478148 0)
(0.998848 -0.000869396 0)
(0.998987 0.000346739 0)
(0.999084 -0.00114156 0)
(0.999107 0.000239672 0)
(0.999125 -0.00118295 0)
(0.99908 0.000247727 0)
(0.999064 -0.00111899 0)
(0.99902 0.00028658 0)
(0.998995 -0.00103396 0)
(0.998941 0.000354936 0)
(0.998916 -0.000932154 0)
(0.998856 0.000450049 0)
(0.998832 -0.000780545 0)
(0.998777 0.000612265 0)
(0.998764 -0.000488722 0)
(0.99873 0.000954965 0)
(0.998736 2.96855e-05 0)
(0.99874 0.00157369 0)
(0.998787 0.000880351 0)
(0.998847 0.00254446 0)
(0.998963 0.00202899 0)
(0.999115 0.00363005 0)
(0.999407 0.00303168 0)
(1.00011 0.00442682 0)
(1.00183 0.00447329 0)
(1.00623 0.00768914 0)
(1.00002 -0.000556126 0)
(0.999232 -0.00132906 0)
(0.99889 -7.45574e-07 0)
(0.998786 -0.000586865 0)
(0.998917 0.000456304 0)
(0.999049 -0.000852798 0)
(0.999157 0.000285859 0)
(0.999179 -0.0010579 0)
(0.999202 0.000230661 0)
(0.99916 -0.0011091 0)
(0.999146 0.000288365 0)
(0.999103 -0.00105775 0)
(0.999081 0.000361999 0)
(0.999024 -0.00096289 0)
(0.999001 0.000428444 0)
(0.998946 -0.000843425 0)
(0.998928 0.000536252 0)
(0.998897 -0.000628918 0)
(0.99889 0.00080859 0)
(0.99888 -0.00021881 0)
(0.998903 0.00130237 0)
(0.998935 0.000473368 0)
(0.999008 0.00206106 0)
(0.999106 0.00143797 0)
(0.999254 0.00314966 0)
(0.999448 0.00294359 0)
(0.999766 0.00504956 0)
(1.0005 0.00527894 0)
(1.00225 0.0068149 0)
(1.00673 0.00522684 0)
(1.00001 -0.00114143 0)
(0.999339 -0.000217994 0)
(0.999016 -0.00114186 0)
(0.998901 0.000570094 0)
(0.998989 -0.00100776 0)
(0.999122 0.000730786 0)
(0.999227 -0.00143912 0)
(0.999256 0.000635741 0)
(0.999284 -0.00168315 0)
(0.999247 0.000693025 0)
(0.999235 -0.00166829 0)
(0.999192 0.00080559 0)
(0.999171 -0.00155676 0)
(0.999115 0.000896515 0)
(0.999096 -0.001371 0)
(0.999042 0.00100253 0)
(0.999033 -0.00108902 0)
(0.999006 0.00117704 0)
(0.999014 -0.000728154 0)
(0.999026 0.00146391 0)
(0.999073 -0.000187889 0)
(0.999129 0.00206112 0)
(0.999226 0.000653879 0)
(0.999371 0.00294253 0)
(0.999622 0.00173392 0)
(0.999979 0.00428844 0)
(1.00044 0.00400802 0)
(1.00099 0.00821924 0)
(1.0019 0.00962763 0)
(1.00519 0.0137446 0)
(0.999945 -0.000622648 0)
(0.999428 -0.00103554 0)
(0.999045 -0.000375036 0)
(0.998987 -0.000348623 0)
(0.999021 4.57429e-06 0)
(0.999173 -0.000295342 0)
(0.999242 -0.000254196 0)
(0.999315 -0.000538896 0)
(0.999319 -0.000455995 0)
(0.999324 -0.000552473 0)
(0.999281 -0.00040824 0)
(0.999278 -0.000451778 0)
(0.999222 -0.000306856 0)
(0.99921 -0.000335708 0)
(0.999154 -0.000162103 0)
(0.999153 -0.000182987 0)
(0.999104 9.39991e-05 0)
(0.999127 8.16361e-05 0)
(0.999104 0.000447692 0)
(0.999165 0.00049094 0)
(0.999218 0.000949072 0)
(0.999325 0.00112052 0)
(0.999438 0.0017702 0)
(0.999602 0.00219136 0)
(0.999887 0.00297726 0)
(1.00044 0.00330657 0)
(1.00151 0.0038429 0)
(1.003 0.00391013 0)
(1.00481 0.0042299 0)
(1.00451 0.00365495 0)
(0.99986 -0.000525429 0)
(0.999688 -0.000894281 0)
(0.999112 -0.000509354 0)
(0.999254 -0.000272421 0)
(0.999023 -0.000108404 0)
(0.999385 -0.000240759 0)
(0.999231 -0.00029982 0)
(0.999512 -0.000447273 0)
(0.999329 -0.000415455 0)
(0.999529 -0.000505176 0)
(0.999308 -0.000319004 0)
(0.999475 -0.000453072 0)
(0.999258 -0.000167649 0)
(0.999399 -0.000346274 0)
(0.999201 1.23895e-05 0)
(0.999347 -0.000189438 0)
(0.999176 0.000231035 0)
(0.999335 7.22671e-05 0)
(0.999211 0.000543416 0)
(0.999401 0.000545729 0)
(0.999354 0.00102795 0)
(0.999616 0.00109592 0)
(0.999685 0.00162137 0)
(1.00002 0.00177731 0)
(1.00014 0.00239799 0)
(1.00052 0.00275823 0)
(1.00076 0.00375598 0)
(1.00125 0.00438185 0)
(1.00169 0.00545774 0)
(1.00473 0.0059636 0)
(0.99993 -0.000883671 0)
(0.999588 -0.000370469 0)
(0.999248 -0.000941397 0)
(0.99919 0.000142305 0)
(0.99916 -0.000597897 0)
(0.999301 0.000258497 0)
(0.999349 -0.00079472 0)
(0.999451 1.75565e-05 0)
(0.999448 -0.000979782 0)
(0.999494 -5.50648e-05 0)
(0.999429 -0.000912919 0)
(0.999461 3.45635e-05 0)
(0.999382 -0.000742949 0)
(0.999403 0.0001937 0)
(0.999328 -0.000519565 0)
(0.999359 0.000405107 0)
(0.999308 -0.000237592 0)