/*--------------------------------*- C++ -*----------------------------------*\
| =========                 |                                                 |
| \\      /  F ield         | OpenFOAM: The Open Source CFD Toolbox           |
|  \\    /   O peration     | Version:  v2006                                 |
|   \\  /    A nd           | Website:  www.openfoam.com                      |
|    \\/     M anipulation  |                                                 |
\*---------------------------------------------------------------------------*/
FoamFile
{
    version     2.0;
    format      ascii;
    class       volScalarField;
    location    "0.3";
    object      p;
}
// * * * * * * * * * * * * * * * * * * * * * * * * * * * * * * * * * * * * * //

dimensions      [0 2 -2 0 0 0 0];


internalField   nonuniform List<scalar> 
26400
(
-3.5957e-10
0.000884628
0.00109536
0.00112346
0.00107069
0.000834871
0.000806312
0.000745702
0.000319921
0.00072939
0.000878769
0.00130413
0.000984113
0.00116009
0.00149028
0.00123711
0.00133281
0.00125782
0.0010129
0.0012005
0.0010956
0.001842
0.00166774
0.00219037
0.00260346
0.00338555
0.00409459
0.0055693
0.00720822
0.0105289
-1.67686e-07
0.000884684
0.00109626
0.00112087
0.00107311
0.000831827
0.000809586
0.000741451
0.000321884
0.000734498
0.000876094
0.00130375
0.000985486
0.0011585
0.00149354
0.00123129
0.00133745
0.00125
0.0010193
0.0011991
0.00109782
0.00184016
0.0016701
0.00217944
0.00261042
0.00336138
0.00411034
0.0054985
0.00723677
0.00974616
-7.46145e-08
0.000884892
0.00109708
0.00111763
0.00107578
0.000827629
0.000813339
0.000736602
0.000326669
0.000740865
0.000872228
0.00130276
0.000987118
0.00115639
0.00149569
0.00122284
0.00134192
0.00124152
0.00102791
0.00120038
0.00110309
0.00183749
0.00167261
0.00217082
0.00261604
0.0033532
0.00410952
0.00544158
0.00712231
0.00902731
5.63765e-07
0.000885077
0.00109765
0.0011138
0.00107749
0.000822812
0.000816433
0.000732453
0.000333733
0.000748282
0.00086798
0.00129989
0.000988896
0.00115375
0.00149581
0.00121276
0.00134526
0.00123411
0.00103858
0.00120377
0.00110903
0.00183262
0.00167549
0.00215846
0.00262034
0.00333055
0.00410643
0.00535621
0.00692272
0.00841275
1.85134e-06
0.000885162
0.00109798
0.00110916
0.00107844
0.00081726
0.000819253
0.000729059
0.000342908
0.000756636
0.000862703
0.00129516
0.000990882
0.00115041
0.00149464
0.00120135
0.00134853
0.00122757
0.00105021
0.00120778
0.00111506
0.00182626
0.00167651
0.0021453
0.00262201
0.00331382
0.00407972
0.00528678
0.00660271
0.00789776
3.77708e-06
0.000885102
0.00109806
0.00110383
0.00107884
0.000811037
0.000822153
0.000726226
0.000353862
0.000765059
0.000856284
0.00128928
0.000993062
0.00114644
0.00149276
0.00118931
0.00135206
0.00122145
0.00106239
0.00121194
0.00112069
0.00182077
0.00167639
0.00213205
0.00262103
0.00330564
0.00402624
0.00522359
0.00624631
0.00728637
6.22125e-06
0.00088484
0.00109789
0.001098
0.00107883
0.000804359
0.00082529
0.000723736
0.000366055
0.000773044
0.000849115
0.00128277
0.000995465
0.00114189
0.0014907
0.0011769
0.00135603
0.00121527
0.00107502
0.00121545
0.00112588
0.00181262
0.00167689
0.00211677
0.00261934
0.00328056
0.00399998
0.0050663
0.00611619
0.00681936
9.01249e-06
0.00088436
0.00109753
0.00109181
0.00107859
0.000797397
0.000828713
0.000721339
0.000379036
0.000780577
0.000841548
0.00127591
0.000997983
0.00113689
0.0014886
0.00116445
0.00136008
0.00120922
0.00108742
0.0012185
0.00113062
0.00180363
0.00167605
0.00210077
0.00261403
0.00325563
0.00396243
0.00490906
0.00581001
0.00633621
1.20058e-05
0.000883688
0.00109707
0.00108537
0.00107826
0.000790224
0.000832411
0.000718864
0.000392547
0.000787777
0.000833814
0.00126885
0.00100027
0.00113147
0.00148652
0.00115209
0.00136381
0.00120368
0.00109889
0.00122174
0.00113477
0.0017976
0.00167156
0.00208593
0.00260344
0.00324191
0.00385792
0.00481705
0.00519449
0.00583431
1.51165e-05
0.00088286
0.00109656
0.00107875
0.00107794
0.000782857
0.000836349
0.00071624
0.00040642
0.000794742
0.000826091
0.00126159
0.00100306
0.00112549
0.00148472
0.00113954
0.00136751
0.00119825
0.00110974
0.00122484
0.00113769
0.00178851
0.0016675
0.00206685
0.00259649
0.00320215
0.00381002
0.00468491
0.00490012
0.00527668
1.83139e-05
0.000881895
0.00109603
0.00107195
0.00107766
0.000775294
0.000840478
0.00071347
0.000420514
0.000801556
0.000818466
0.00125409
0.00100582
0.00111903
0.00148303
0.00112718
0.00137073
0.00119337
0.00111947
0.00122845
0.00113899
0.00177876
0.00166442
0.0020416
0.00259313
0.00314039
0.00380074
0.00451056
0.00498691
0.00464156
2.16077e-05
0.000880783
0.00109551
0.00106498
0.00107744
0.000767523
0.000844764
0.000710589
0.00043472
0.000808255
0.000810978
0.00124633
0.00100914
0.00111202
0.00148152
0.00111505
0.00137327
0.00118962
0.00112711
0.00123321
0.00113873
0.00176971
0.00165915
0.00201261
0.0025874
0.00307638
0.00375138
0.00433794
0.00482629
0.00389344
2.50262e-05
0.000879494
0.00109499
0.00105782
0.00107728
0.000759569
0.000849145
0.000707663
0.000448906
0.000814895
0.000803587
0.00123836
0.00101215
0.00110452
0.00148015
0.0011034
0.00137477
0.00118747
0.00113242
0.00123908
0.00113636
0.00176213
0.00165008
0.00198223
0.00257309
0.00302453
0.00364991
0.00415653
0.00436595
0.00348008
2.86119e-05
0.000877968
0.00109449
0.00105047
0.00107718
0.000751459
0.000853565
0.000704759
0.000462945
0.0008215
0.000796326
0.00123019
0.00101475
0.0010966
0.00147859
0.00109281
0.00137465
0.00118711
0.00113534
0.00124578
0.00113226
0.00175678
0.00164012
0.00194884
0.00254822
0.00299356
0.0035326
0.00397477
0.00366419
0.00287981
3.24281e-05
0.000876123
0.00109399
0.0010429
0.00107718
0.000743198
0.000857986
0.000701933
0.000476747
0.000828059
0.000789163
0.00122186
0.0010176
0.00108814
0.00147717
0.0010825
0.00137381
0.00118753
0.00113691
0.0012528
0.00112803
0.00173937
0.00163513
0.00190587
0.00253525
0.00288562
0.00343006
0.00382334
0.00374708
0.00246784
3.65398e-05
0.000873863
0.0010935
0.00103512
0.00107727
0.000734879
0.000862291
0.000699287
0.000490147
0.000834683
0.000781983
0.00121343
0.00102041
0.00107927
0.00147563
0.00107331
0.00137133
0.00118971
0.00113649
0.00126032
0.0011229
0.00171743
0.00163096
0.00185513
0.00251092
0.00278297
0.00330761
0.00363002
0.00356784
0.0017003
4.10376e-05
0.000871059
0.00109301
0.00102713
0.00107743
0.00072659
0.000866377
0.000696972
0.00050286
0.000841577
0.000774685
0.00120501
0.0010228
0.00107036
0.00147343
0.00106641
0.00136591
0.00119507
0.00113055
0.00126975
0.00111357
0.00170397
0.00161904
0.0018043
0.00245651
0.00271611
0.0031211
0.00337155
0.0030418
0.0014532
4.60263e-05
0.000867577
0.0010925
0.00101892
0.00107773
0.000718347
0.00087016
0.000695106
0.000514779
0.000848791
0.000766996
0.00119691
0.00102463
0.00106104
0.00147126
0.00106068
0.00135852
0.00120226
0.00111632
0.00127885
0.00110295
0.00168949
0.0016042
0.00174687
0.00239147
0.00263927
0.00292356
0.00306543
0.00216825
0.000927947
5.16494e-05
0.000863236
0.00109198
0.00101049
0.00107811
0.000710356
0.000873411
0.000693886
0.000525558
0.000856606
0.000759113
0.00118843
0.00102795
0.00105096
0.00146911
0.00105572
0.00135005
0.00121
0.00110928
0.00128327
0.00109761
0.00165571
0.00159941
0.00167057
0.00233613
0.00250976
0.00274559
0.00293205
0.00243552
0.000557304
5.79667e-05
0.00085791
0.00109134
0.00100196
0.0010785
0.000702792
0.000875924
0.000693539
0.000534985
0.000864912
0.000750784
0.0011807
0.00102843
0.00104086
0.00146634
0.00105217
0.00133903
0.00122069
0.00110056
0.00128452
0.00109268
0.00161286
0.00159741
0.00158457
0.00226353
0.00237601
0.00254538
0.00270517
0.00231301
-0.000319838
6.53327e-05
0.000851282
0.00109065
0.00099312
0.00107923
0.000695453
0.000877712
0.000694223
0.000542814
0.000873871
0.000741967
0.00117251
0.00103359
0.00102911
0.00146479
0.00104999
0.00132419
0.00122435
0.00108353
0.00129366
0.0010801
0.00157765
0.00157621
0.00151269
0.00214929
0.00226235
0.00227009
0.00232828
0.00175298
-0.00020236
7.36292e-05
0.000843268
0.00108971
0.000984386
0.00107958
0.00068936
0.000877962
0.000696591
0.000547985
0.00088503
0.000731949
0.00116515
0.0010336
0.00101961
0.00146117
0.00105501
0.00130555
0.00124762
0.00105588
0.00130591
0.00106782
0.00154692
0.00153866
0.00143917
0.00200637
0.00216235
0.00197897
0.00184967
0.000685461
-0.000561821
8.33575e-05
0.000833483
0.0010886
0.000975464
0.00108006
0.000683954
0.000877093
0.000700334
0.000551521
0.000895603
0.000722888
0.00115682
0.00103846
0.00100311
0.00146238
0.00104866
0.00129221
0.00125459
0.00105407
0.00128381
0.00108356
0.00147752
0.00154193
0.00131461
0.00187834
0.00197801
0.00176288
0.00173484
0.00132623
-0.000848435
9.46029e-05
0.000821794
0.00108715
0.000966518
0.00108066
0.000679483
0.000874737
0.000705857
0.000552638
0.000906936
0.000713547
0.00114745
0.00104598
0.000985279
0.00146322
0.00104356
0.00127298
0.00127338
0.001038
0.00127128
0.00108472
0.00141399
0.00151433
0.00123022
0.00171599
0.00182237
0.00149852
0.00136638
0.00097547
-0.00110544
0.000107445
0.000808092
0.00108491
0.000958222
0.00108026
0.000677446
0.000869721
0.000714138
0.000549643
0.000922782
0.000701508
0.00113989
0.00104655
0.00098254
0.00145603
0.00106805
0.00123612
0.00130854
0.000992814
0.00127872
0.00106964
0.00135577
0.0014455
0.00119503
0.00149695
0.00170578
0.00118758
0.000710679
-0.000519539
-0.00135385
0.00012211
0.000792347
0.00108178
0.000949669
0.00108019
0.000676469
0.000863511
0.000722951
0.00054671
0.000933809
0.000695361
0.00112551
0.00105958
0.000956256
0.00146113
0.00105708
0.00123067
0.00130517
0.00101327
0.00122884
0.00111475
0.00125771
0.00142802
0.00107998
0.00131249
0.00146799
0.00104778
0.000744512
0.000406584
-0.00160465
0.000138825
0.000774914
0.00107802
0.000941298
0.00107951
0.000677527
0.000855437
0.000733288
0.00054213
0.000944247
0.000691355
0.00110894
0.00107145
0.000926574
0.00145196
0.00105915
0.00121631
0.00132109
0.00101651
0.00117547
0.00113519
0.00116331
0.00137859
0.000982853
0.001133
0.00121893
0.000762085
0.000347742
0.000140575
-0.00180476
0.000157839
0.000755131
0.00107128
0.000935182
0.0010768
0.000682125
0.000844359
0.000748001
0.000532944
0.000960066
0.000683771
0.00109805
0.00107878
0.000951227
0.00141835
0.00111541
0.00111361
0.00138469
0.00096684
0.00117453
0.00108761
0.001143
0.00123961
0.000964437
0.000915228
0.00101037
0.000307658
-0.000607518
-0.00154772
-0.00124722
0.000178664
0.000733877
0.00106323
0.00092697
0.00107544
0.000687632
0.000833997
0.000756538
0.000529732
0.000963229
0.000689829
0.00106614
0.00110591
0.000920941
0.00140939
0.0011265
0.00109232
0.00139797
0.000977257
0.0011203
0.00112416
0.00107924
0.00112553
0.000901819
0.000781361
0.00082805
0.000110065
-0.00097374
-0.00200981
-0.00159654
0.000202917
0.000709999
0.00105254
0.000920847
0.00107085
0.000696352
0.000823319
0.00076746
0.000524246
0.00096336
0.000702796
0.00101761
0.0011436
0.000875532
0.00141731
0.00114077
0.00107437
0.00137656
0.00103334
0.0010151
0.00113586
0.00100693
0.00100569
0.0007736
0.000666874
0.000687984
0.000294954
-0.000370147
-0.00102741
-0.00322796
0.000227001
0.000689098
0.00103381
0.000918043
0.00106441
0.000709102
0.000811187
0.000815225
0.000521698
0.000961631
0.000714888
0.000982815
0.00117199
0.000850983
0.00140859
0.0011685
0.00104475
0.00136021
0.00104369
0.00093734
0.00111702
0.000958356
0.000867334
0.000672626
0.000555094
0.000555116
0.000263798
-0.000482727
-0.00170543
-0.0054542
0.000256906
0.000663703
0.00101846
0.000905407
0.00106259
0.000716177
0.000807922
0.000809578
0.00052418
0.000954602
0.000724131
0.000954945
0.00117838
0.000856242
0.00136439
0.0012216
0.000998613
0.00134743
0.00106739
0.000877255
0.00106076
0.00093881
0.000740631
0.000560989
0.00042897
0.00028713
-0.000176292
-0.000934118
-0.00181097
-0.00447945
0.000282651
0.000646079
0.000987598
0.000909817
0.00104761
0.00073913
0.000786598
0.000832995
0.000516348
0.000955699
0.000726936
0.000945562
0.00116387
0.000905206
0.00127772
0.00129372
0.000948064
0.00131617
0.00109016
0.000823446
0.000953903
0.000905771
0.000617405
0.000431719
0.000294305
9.15e-05
-0.000725415
-0.00212841
-0.0039119
-0.00463897
0.000315856
0.000623915
0.000963475
0.000891097
0.00104762
0.000743447
0.000801386
0.00082362
0.000539448
0.000917619
0.000783645
0.000879874
0.00118849
0.000893873
0.00124248
0.00133159
0.000981648
0.00123307
0.0011386
0.000767154
0.000858835
0.000845346
0.00050013
0.000242362
0.000147113
-4.38496e-05
-0.000489083
-0.00115359
-0.00221359
-0.00551531
0.000344194
0.000611335
0.000927689
0.000891275
0.00102908
0.000768862
0.000754141
0.000841438
0.000548667
0.000884272
0.000818511
0.000837766
0.00119771
0.000914252
0.00120532
0.00135547
0.000977462
0.00117831
0.00115723
0.000730682
0.000746111
0.000757533
0.000383956
5.62545e-05
-1.75621e-05
-0.000110383
-0.000532236
-0.00149241
-0.00325876
-0.00763798
0.000368247
0.000600836
0.000891844
0.000875741
0.00101731
0.00078866
0.000761814
0.000843946
0.000557961
0.000857279
0.000846023
0.000807493
0.00118759
0.000947877
0.00116626
0.00136213
0.000998309
0.00112291
0.00115064
0.000737794
0.000630356
0.000644454
0.000275155
-0.000154263
-0.000272528
-0.000354552
-0.000823863
-0.00182223
-0.00362569
-0.00804046
0.000410034
0.000585955
0.000878591
0.000846785
0.00100427
0.000797918
0.00075172
0.00085607
0.000566838
0.000833337
0.000860894
0.000791833
0.00115876
0.000985662
0.00113417
0.00135266
0.00103707
0.00105802
0.00112728
0.000726738
0.000520077
0.000515712
0.000162225
-0.000369317
-0.00062074
-0.00081809
-0.00138748
-0.00221193
-0.00322021
-0.00647542
0.000408334
0.000600952
0.000791167
0.000854368
0.000964344
0.000842652
0.000714949
0.000883418
0.000565497
0.000822397
0.000857835
0.00082448
0.00110237
0.00103492
0.00109967
0.00133952
0.00107291
0.00100823
0.00109049
0.000714339
0.000409661
0.000363759
2.38259e-05
-0.000515921
-0.000898137
-0.00125513
-0.00239818
-0.00421338
-0.00622118
-0.00587725
0.000467173
0.000571844
0.000824161
0.000782681
0.000965085
0.000818203
0.000776695
0.000865517
0.000603163
0.000776371
0.000881749
0.000791117
0.0010739
0.00106108
0.00108262
0.00131987
0.00110546
0.000978659
0.00103259
0.000702369
0.000315069
0.000183438
-0.000160976
-0.000791114
-0.00114261
-0.00122148
-0.00158259
-0.00220385
-0.00285544
-0.00581275
0.000448064
0.000607956
0.000728169
0.000801529
0.00090494
0.00087315
0.000734419
0.000894792
0.000601644
0.000774366
0.000840654
0.000800292
0.00105093
0.00107652
0.00108378
0.00129509
0.00112768
0.000931427
0.000966469
0.000669671
0.00023944
6.74366e-05
-0.00021789
-0.000777063
-0.00133735
-0.00192708
-0.00313442
-0.00505975
-0.00721093
-0.00655252
0.000500436
0.000577677
0.000765688
0.00073367
0.000895626
0.000850639
0.000786791
0.00087994
0.00064248
0.00074234
0.000840138
0.00078992
0.00101849
0.00108733
0.00109052
0.00127016
0.00113995
0.000908201
0.000886557
0.000625478
0.000175228
-7.3183e-05
-0.000353565
-0.000898917
-0.00137084
-0.00156391
-0.00184982
-0.00258269
-0.0040674
-0.0081378
0.000504924
0.000593996
0.000719556
0.000714254
0.000864612
0.000846417
0.000823773
0.00084913
0.000705039
0.000703008
0.000835723
0.00079544
0.00097491
0.00110001
0.0010852
0.00123756
0.00114581
0.000902143
0.000802854
0.000565428
0.000119973
-0.000193435
-0.000467836
-0.000937029
-0.00140114
-0.00172062
-0.00224752
-0.00360723
-0.00612432
-0.0111879
0.000497795
0.000598585
0.000703883
0.000729232
0.000802556
0.000841224
0.000811321
0.000858474
0.000731264
0.000693893
0.000824956
0.000789814
0.00093334
0.00109822
0.0010995
0.00120582
0.00114855
0.000899747
0.000730764
0.000500295
7.13042e-05
-0.000313448
-0.000621238
-0.00107623
-0.0015893
-0.00200226
-0.00261427
-0.00399562
-0.00660554
-0.0117046
0.000576984
0.000559371
0.00072054
0.000664433
0.000806582
0.000810346
0.000823342
0.000882373
0.000732473
0.000704641
0.000812172
0.000774271
0.000900215
0.0010783
0.00110593
0.00117767
0.00113653
0.00089559
0.000683432
0.000446351
1.34621e-05
-0.00042737
-0.000814668
-0.00134056
-0.00193649
-0.00244189
-0.00292968
-0.00384892
-0.00570369
-0.0104995
0.000492058
0.000621178
0.000670216
0.00072386
0.000716447
0.000827453
0.000763806
0.000924477
0.000723998
0.00073616
0.000779136
0.00078012
0.000855794
0.00104642
0.00111074
0.00115734
0.00112096
0.000884459
0.000661212
0.000379832
-5.63608e-05
-0.000489961
-0.000948476
-0.00149833
-0.00237316
-0.00351262
-0.0049353
-0.00686167
-0.00922447
-0.00842347
0.000619765
0.000549037
0.000687985
0.000674942
0.000722875
0.000777288
0.000779901
0.000899591
0.000793915
0.000707579
0.000772961
0.000769253
0.000813083
0.00100171
0.00111732
0.00116207
0.00110038
0.000878086
0.000606089
0.000298496
-0.000137801
-0.000621764
-0.00105814
-0.00153753
-0.00204483
-0.00251451
-0.00309508
-0.00418024
-0.00647338
-0.0118677
0.000527197
0.00059985
0.000670611
0.000666266
0.0007198
0.000729003
0.000793744
0.000854826
0.000850114
0.000701327
0.000756518
0.000767337
0.000779865
0.000949938
0.00109659
0.00115785
0.0010738
0.000856219
0.000558238
0.000231159
-0.000202247
-0.000682315
-0.00110222
-0.00155394
-0.00206165
-0.00277408
-0.0038584
-0.00570382
-0.00893271
-0.0149511
0.000601375
0.000590204
0.000630393
0.000695156
0.000664649
0.000734029
0.000730763
0.000853873
0.000863691
0.00074001
0.000735876
0.000750323
0.000761108
0.000886697
0.00106539
0.0011429
0.00106878
0.000829007
0.000521259
0.000173656
-0.000266199
-0.000752694
-0.00120741
-0.00165266
-0.00219726
-0.00291171
-0.00396982
-0.00577127
-0.00905542
-0.0152378
0.000585359
0.000561283
0.000658661
0.000644414
0.000687451
0.000707414
0.000704677
0.000827817
0.000863457
0.000786394
0.000722598
0.000719956
0.000732532
0.00083646
0.00101246
0.00111842
0.00105347
0.000813623
0.000490012
0.000120485
-0.000331514
-0.000845051
-0.00132819
-0.00178882
-0.00233
-0.00304822
-0.0041692
-0.00612908
-0.00963977
-0.0161214
0.000570044
0.000623515
0.000614373
0.000651383
0.000671361
0.0006885
0.000700967
0.000768354
0.000859387
0.000814214
0.000735426
0.000689242
0.000700481
0.000789523
0.000953822
0.00107383
0.00102882
0.000798876
0.000461551
7.23503e-05
-0.000400806
-0.000943678
-0.0014603
-0.00194624
-0.00249063
-0.00323842
-0.00445252
-0.0065422
-0.0101972
-0.0168145
0.0006096
0.000566432
0.000620415
0.000642658
0.00063769
0.000696484
0.000666405
0.000725285
0.000830277
0.000833867
0.000761262
0.000680276
0.000659921
0.000740195
0.000893974
0.00101906
0.000992923
0.000777735
0.000437346
2.73226e-05
-0.000471627
-0.00104641
-0.00160909
-0.00212582
-0.00268612
-0.00346998
-0.004749
-0.00692399
-0.0106676
-0.0173353
0.000568833
0.000602774
0.000622803
0.00061888
0.000642783
0.000672675
0.000659553
0.000688911
0.000777903
0.000827362
0.000787377
0.000688088
0.000627174
0.000684178
0.000827589
0.000955553
0.000947047
0.000748185
0.000408767
-2.09111e-05
-0.000545605
-0.00115423
-0.00176543
-0.00232179
-0.00290745
-0.00371702
-0.00503482
-0.00726479
-0.0110562
-0.0177448
0.000591322
0.000591542
0.00059731
0.000621911
0.000616968
0.000650737
0.000668058
0.000655526
0.000720803
0.000796177
0.000800963
0.00071069
0.000614465
0.000626862
0.000754252
0.000884547
0.000890165
0.00070864
0.000373046
-7.21492e-05
-0.000622494
-0.00126636
-0.00192477
-0.00252704
-0.00313979
-0.00396546
-0.00530519
-0.00756462
-0.0113839
-0.0180907
0.000579563
0.000578905
0.000604482
0.000615979
0.000598975
0.000636727
0.000658031
0.000640068
0.000667098
0.000744654
0.000789209
0.000736137
0.000622409
0.00058596
0.000678811
0.000800135
0.00081671
0.000657186
0.000330762
-0.000125924
-0.000703664
-0.00138306
-0.0020846
-0.00273087
-0.00337081
-0.00420873
-0.00555827
-0.0078269
-0.0116506
-0.0183599
0.000575205
0.000584262
0.000595904
0.000602285
0.000592082
0.000606987
0.000638959
0.00063378
0.000628264
0.000679928
0.000750438
0.000744418
0.00064744
0.000569962
0.000606684
0.00070398
0.000726693
0.000587949
0.000277362
-0.000183138
-0.000784495
-0.00149905
-0.00224315
-0.00293173
-0.00359881
-0.00444484
-0.00579183
-0.00805825
-0.0118858
-0.018608
0.00057238
0.000573062
0.000582389
0.000598091
0.000584901
0.000583048
0.000613444
0.000622434
0.000603953
0.00062201
0.000688241
0.000725234
0.000673469
0.000579735
0.000557283
0.000605762
0.000616551
0.000493879
0.000208004
-0.000242846
-0.000860659
-0.00161135
-0.00240074
-0.00313024
-0.00382016
-0.00466791
-0.00600689
-0.00826907
-0.0121013
-0.0188362
0.000568516
0.000564807
0.000571987
0.000588879
0.000577078
0.000565109
0.000579496
0.00059844
0.000588272
0.000578684
0.000615506
0.000675445
0.000678793
0.000608308
0.000538977
0.00051621
0.000489775
0.000373277
0.000115874
-0.000312783
-0.00093276
-0.0017134
-0.00254816
-0.00332057
-0.00403454
-0.00488376
-0.00621222
-0.00846763
-0.0123025
-0.0190421
0.000560314
0.000559638
0.00056171
0.000573149
0.000568901
0.000552527
0.000547133
0.000562965
0.000569495
0.000550831
0.000552211
0.000600332
0.000651191
0.000633567
0.000549968
0.000456259
0.000362443
0.000227962
-7.67202e-06
-0.000400781
-0.00100256
-0.0017986
-0.00267793
-0.0035004
-0.00424485
-0.00509609
-0.00641005
-0.00865275
-0.0124881
-0.0192401
0.00055266
0.000553031
0.000549743
0.000556389
0.00055712
0.000543888
0.000520125
0.000518081
0.000537621
0.000533129
0.000506102
0.000517711
0.000589995
0.00063287
0.000578056
0.000433652
0.000253411
6.61391e-05
-0.000164272
-0.000516496
-0.00107997
-0.00187074
-0.00278448
-0.00366047
-0.00444621
-0.00530723
-0.00660528
-0.00882624
-0.0126522
-0.0194126
0.000543871
0.000542375
0.000540123
0.000539156
0.000539074
0.00053481
0.000500588
0.000471385
0.000491492
0.00051167
0.000477196
0.000446523
0.000502907
0.000594105
0.000596489
0.000442821
0.000182956
-8.88249e-05
-0.0003468
-0.000669417
-0.00117834
-0.00193696
-0.00286445
-0.00379248
-0.00463214
-0.00551668
-0.00680106
-0.00899067
-0.0127902
-0.0195388
0.000532591
0.000532123
0.000532042
0.000522845
0.00051603
0.000520858
0.000487518
0.000431129
0.000433832
0.00047559
0.000459995
0.000395814
0.000409984
0.000519681
0.000583618
0.000465233
0.000154743
-0.000214253
-0.000539718
-0.000857288
-0.00130975
-0.00201075
-0.00292612
-0.00389283
-0.00479167
-0.00571428
-0.00699674
-0.00915781
-0.0129306
-0.0196736
0.000520824
0.000520054
0.00052169
0.00050851
0.000490121
0.00049921
0.000476567
0.000400997
0.000372142
0.000422021
0.000439483
0.000364535
0.000329241
0.000420091
0.00052999
0.000472363
0.00015896
-0.000293591
-0.000714604
-0.00106673
-0.00148064
-0.00211002
-0.00298162
-0.00396234
-0.0049155
-0.00589047
-0.0071908
-0.00933299
-0.0130742
-0.0197975
0.000509266
0.00050517
0.000508308
0.000495976
0.00046489
0.000470726
0.000461677
0.000379776
0.000316838
0.00035469
0.000403013
0.000346004
0.000270779
0.00031677
0.000441313
0.000444963
0.000170872
-0.000328877
-0.000849458
-0.0012747
-0.00168226
-0.00224551
-0.00304815
-0.00401249
-0.00500482
-0.00603765
-0.00737197
-0.00950867
-0.0132201
-0.0199173
0.000496368
0.00048942
0.000492456
0.000483666
0.000442795
0.000437059
0.000438675
0.000363565
0.000273073
0.000281213
0.000346787
0.000325013
0.000233067
0.000227092
0.00033064
0.000377224
0.000163837
-0.000334763
-0.00093459
-0.00145377
-0.00189559
-0.00241638
-0.00314323
-0.00406138
-0.0050673
-0.00615001
-0.00752844
-0.00967614
-0.0133692
-0.0200416
0.000482505
0.000473533
0.000473836
0.000468984
0.000423554
0.000402259
0.000406997
0.000345836
0.000240082
0.000212612
0.000275206
0.000288426
0.000208143
0.000160162
0.000219471
0.000277581
0.000122546
-0.000337952
-0.000977935
-0.00158682
-0.00209496
-0.00260858
-0.00327251
-0.00412627
-0.00511604
-0.00623197
-0.00765636
-0.00982807
-0.013515
-0.0201708
0.000468056
0.000457055
0.000452693
0.000450899
0.000406073
0.000370189
0.000368689
0.000321117
0.000214368
0.000155302
0.000196019
0.00023245
0.000181722
0.000113488
0.000123459
0.000161357
4.55541e-05
-0.000360256
-0.000997789
-0.00167321
-0.00225975
-0.00280147
-0.00342787
-0.0042176
-0.00516841
-0.006294
-0.00775619
-0.00995766
-0.0136469
-0.0202867
0.000452141
0.000439977
0.000431365
0.000429457
0.000388382
0.000341849
0.00032733
0.000287749
0.00019003
0.000109584
0.000119547
0.000161609
0.000142233
7.83844e-05
4.94303e-05
4.88604e-05
-5.64396e-05
-0.00041238
-0.00101845
-0.00172494
-0.00238144
-0.00297373
-0.0035937
-0.00433425
-0.00523636
-0.00634864
-0.00783266
-0.0100637
-0.013766
-0.0204018
0.00043474
0.000422467
0.000410205
0.000405559
0.000368156
0.000316387
0.000286898
0.000247386
0.000161092
7.18509e-05
5.25395e-05
8.33228e-05
8.69181e-05
4.28975e-05
-6.21219e-06
-4.74153e-05
-0.00016755
-0.000491674
-0.00105596
-0.00176118
-0.00246617
-0.00311374
-0.00375248
-0.00446576
-0.00532308
-0.00640829
-0.0078973
-0.0101516
-0.0138722
-0.0205112
0.000416081
0.00040424
0.00038944
0.000380249
0.000344704
0.000292069
0.000249783
0.000203179
0.000125354
3.74525e-05
-3.85775e-06
6.39537e-06
1.97614e-05
-1.46869e-06
-5.16177e-05
-0.000124148
-0.00027189
-0.000586845
-0.00111562
-0.00180015
-0.00252681
-0.00322072
-0.00389108
-0.00459884
-0.00542416
-0.006479
-0.0079601
-0.0102284
-0.0139693
-0.0206213
0.000396617
0.000385052
0.000368735
0.000354667
0.000318661
0.0002672
0.000216062
0.000158595
8.37356e-05
1.64085e-06
-5.21983e-05
-6.3408e-05
-5.27248e-05
-5.61925e-05
-9.58123e-05
-0.000185517
-0.000361714
-0.000684962
-0.00119229
-0.00185109
-0.00257846
-0.00330246
-0.00400519
-0.00472238
-0.0055309
-0.0065602
-0.008027
-0.0102991
-0.0140537
-0.020716
0.000376832
0.000364957
0.000347773
0.00032958
0.000291099
0.000240762
0.000184502
0.000116137
3.89318e-05
-3.77195e-05
-9.59597e-05
-0.000124576
-0.000124092
-0.000118221
-0.000144375
-0.000238282
-0.000436252
-0.000775857
-0.00127643
-0.00191462
-0.00263175
-0.00336916
-0.00409759
-0.00483051
-0.00563454
-0.00664638
-0.00809789
-0.0103666
-0.0141276
-0.0207973
0.000356808
0.000344338
0.000326509
0.000305096
0.000263079
0.000212796
0.000153983
7.67246e-05
-6.289e-06
-8.02303e-05
-0.000138315
-0.000178352
-0.000190102
-0.000182766
-0.000197956
-0.00028847
-0.000499178
-0.000855444
-0.00135944
-0.00198563
-0.00269028
-0.00342954
-0.00417374
-0.00492218
-0.00572918
-0.00673143
-0.00817002
-0.0104316
-0.0141935
-0.0208682
0.000336841
0.000323592
0.00030503
0.000281296
0.00023554
0.00018399
0.000123821
4.01563e-05
-4.97883e-05
-0.000124096
-0.000180765
-0.000226901
-0.000249271
-0.000245567
-0.000254469
-0.000339092
-0.000554831
-0.000923965
-0.00143579
-0.00205779
-0.00275263
-0.00348813
-0.0042394
-0.00499942
-0.00581236
-0.00681094
-0.00824038
-0.0104944
-0.0142544
-0.0209316
0.000317209
0.000303116
0.0002837
0.000258218
0.000209025
0.000155247
9.39998e-05
6.05013e-06
-9.03641e-05
-0.000167316
-0.000223161
-0.000271977
-0.000302062
-0.00030386
-0.000310791
-0.000390249
-0.000606325
-0.000983481
-0.00150353
-0.00212635
-0.00281541
-0.00354596
-0.00429877
-0.00506547
-0.00588396
-0.00688232
-0.00830649
-0.0105545
-0.0143116
-0.0209898
0.000298267
0.000283365
0.000262915
0.000236029
0.000184005
0.000127581
6.49557e-05
-2.58973e-05
-0.000127564
-0.000208231
-0.000264472
-0.000314404
-0.000349362
-0.000356376
-0.000364091
-0.000440391
-0.000654876
-0.00103591
-0.00156249
-0.0021885
-0.00287544
-0.00360209
-0.0043538
-0.00512332
-0.00594561
-0.00694512
-0.00836679
-0.0106107
-0.0143649
-0.021043
0.000280421
0.000264764
0.000243252
0.000215135
0.000160845
0.00010174
3.73692e-05
-5.55864e-05
-0.000161158
-0.000245631
-0.000303328
-0.000353973
-0.000391701
-0.000402736
-0.000412389
-0.000487449
-0.000700264
-0.00108264
-0.0016135
-0.0022432
-0.00293045
-0.00365492
-0.00440492
-0.00517496
-0.00599915
-0.00699975
-0.0084204
-0.0106618
-0.0144138
-0.0210914
0.000264149
0.000247859
0.00022531
0.000196025
0.000139926
7.84684e-05
1.22183e-05
-8.25012e-05
-0.000190954
-0.000278725
-0.000338343
-0.000389801
-0.000429117
-0.000442855
-0.000454519
-0.000529568
-0.000741382
-0.00112409
-0.00165751
-0.00229032
-0.00297896
-0.00370269
-0.0044513
-0.00522085
-0.00604564
-0.00704696
-0.00846743
-0.0107076
-0.0144581
-0.0211349
0.000249925
0.000233205
0.000209793
0.000179434
0.000121863
5.84493e-05
-9.62716e-06
-0.000105916
-0.000216452
-0.000306816
-0.000368382
-0.000420722
-0.000460906
-0.000476263
-0.000489555
-0.000565137
-0.000776556
-0.00115936
-0.00169433
-0.0023295
-0.00301976
-0.00374355
-0.00449126
-0.00526008
-0.00608484
-0.0070865
-0.00850714
-0.0107471
-0.0144974
-0.0211745
0.00023831
0.000221201
0.000197136
0.000165988
0.0001074
4.25767e-05
-2.69835e-05
-0.00012454
-0.000236514
-0.000328725
-0.000391871
-0.000444906
-0.00048536
-0.000501382
-0.000515677
-0.000591894
-0.000803366
-0.00118632
-0.00172234
-0.00235929
-0.00305109
-0.00377534
-0.00452247
-0.00529039
-0.00611459
-0.00711619
-0.00853704
-0.0107773
-0.0145276
-0.0212048
0.000229803
0.000211994
0.000187038
0.000154759
9.48906e-05
2.85173e-05
-4.27832e-05
-0.000141977
-0.00025547
-0.000349243
-0.000413774
-0.000467597
-0.000508277
-0.00052445
-0.000539166
-0.000616004
-0.000828184
-0.00121207
-0.00174944
-0.00238807
-0.00308137
-0.00380642
-0.00455346
-0.00532068
-0.00614395
-0.00714466
-0.00856469
-0.0108043
-0.0145549
-0.0212352
0.0124532
0.0117801
0.00995285
0.00763969
0.0048334
0.00152653
-0.00216035
-0.00579251
-0.00854019
-0.00979056
-0.00968706
-0.00885846
-0.00786386
-0.00699574
-0.00634855
-0.00591531
-0.00565378
-0.00551358
-0.00544211
-0.00539486
-0.00534738
-0.00529529
-0.00524471
-0.00520357
-0.00517754
-0.00516715
-0.00516621
-0.00516523
-0.00515804
-0.0051449
-0.00512937
-0.00511387
-0.00509859
-0.00508323
-0.00506815
-0.0050536
-0.0050389
-0.00502331
-0.00500717
-0.00499206
-0.00497983
-0.00497133
-0.00496635
-0.00496424
-0.00496434
-0.00496562
-0.00496702
-0.0049685
-0.00497072
-0.00497384
-0.00497782
-0.00498352
-0.0049921
-0.00500377
-0.00501736
-0.00503142
-0.00504517
-0.00505857
-0.00507206
-0.00508619
-0.00510135
-0.00511767
-0.00513518
-0.00515387
-0.00517373
-0.00519466
-0.00521635
-0.00523809
-0.00525928
-0.00527995
-0.00530051
-0.00532123
-0.00534218
-0.00536362
-0.00538572
-0.00540829
-0.00543075
-0.00545277
-0.00547453
-0.00549651
-0.00551918
-0.0055429
-0.00556783
-0.00559383
-0.00562049
-0.00564745
-0.0056747
-0.0057026
-0.0057315
-0.00576149
-0.00579224
-0.00582316
-0.00585385
-0.00588424
-0.00591448
-0.00594473
-0.00597489
-0.00600451
-0.00603314
-0.00606055