/*--------------------------------*- C++ -*----------------------------------*\
| =========                 |                                                 |
| \\      /  F ield         | OpenFOAM: The Open Source CFD Toolbox           |
|  \\    /   O peration     | Version:  v2006                                 |
|   \\  /    A nd           | Website:  www.openfoam.com                      |
|    \\/     M anipulation  |                                                 |
\*---------------------------------------------------------------------------*/
FoamFile
{
    version     2.0;
    format      ascii;
    class       surfaceScalarField;
    location    "0.3";
    object      phi;
}
// * * * * * * * * * * * * * * * * * * * * * * * * * * * * * * * * * * * * * //

dimensions      [0 3 -1 0 0 0 0];
oriented        oriented;


internalField   nonuniform List<scalar> 
52390
(
1.16778e-06
-1.52304e-07
1.16972e-06
1.1395e-07
1.17268e-06
-7.32549e-08
1.16726e-06
-1.96696e-08
1.17596e-06
1.25516e-07
1.16617e-06
-1.50132e-07
1.17692e-06
1.626e-07
1.16238e-06
-1.27876e-07
1.17068e-06
-5.41492e-08
1.17635e-06
1.7476e-07
1.16811e-06
-1.76598e-07
1.17213e-06
3.62494e-08
1.17296e-06
-5.59565e-09
1.1721e-06
8.41459e-08
1.17664e-06
4.31567e-08
1.16948e-06
-7.50941e-08
1.17721e-06
1.11776e-07
1.16618e-06
-6.31914e-08
1.17386e-06
2.13884e-08
1.16869e-06
3.28408e-08
1.17203e-06
-6.94035e-08
1.17061e-06
1.78362e-08
1.17301e-06
-4.97975e-08
1.1698e-06
-5.76815e-09
1.17302e-06
-3.80613e-08
1.16906e-06
1.01965e-08
1.17338e-06
-2.49277e-08
1.16619e-06
1.28701e-08
1.1655e-06
-4.81002e-09
2.72095e-08
1.13249e-06
1.224e-06
-1.52039e-07
1.22641e-06
1.11534e-07
1.22921e-06
-7.60483e-08
1.22434e-06
-1.48075e-08
1.23206e-06
1.17796e-07
1.22273e-06
-1.408e-07
1.23187e-06
1.53464e-07
1.21873e-06
-1.14734e-07
1.22588e-06
-6.13024e-08
1.23395e-06
1.66692e-07
1.22543e-06
-1.68083e-07
1.22982e-06
3.18583e-08
1.22985e-06
-5.62486e-09
1.23056e-06
8.34385e-08
1.23315e-06
4.05683e-08
1.22756e-06
-6.95015e-08
1.23197e-06
1.07366e-07
1.22451e-06
-5.57354e-08
1.22779e-06
1.81121e-08
1.22821e-06
3.2418e-08
1.22663e-06
-6.78204e-08
1.23108e-06
1.33793e-08
1.22757e-06
-4.62797e-08
1.23153e-06
-9.7312e-09
1.22627e-06
-3.28014e-08
1.23218e-06
4.28423e-09
1.22487e-06
-1.76181e-08
1.22966e-06
8.08209e-09
1.21503e-06
9.82112e-09
3.99056e-08
1.20233e-06
1.28213e-06
-1.51386e-07
1.28627e-06
1.07397e-07
1.28777e-06
-7.75546e-08
1.28503e-06
-1.20611e-08
1.29059e-06
1.12235e-07
1.28306e-06
-1.33268e-07
1.28946e-06
1.47056e-07
1.27946e-06
-1.04729e-07
1.28373e-06
-6.55739e-08
1.29431e-06
1.56109e-07
1.28483e-06
-1.58594e-07
1.29018e-06
2.65009e-08
1.2885e-06
-3.93925e-09
1.29207e-06
7.98699e-08
1.29152e-06
4.11096e-08
1.28881e-06
-6.67847e-08
1.28993e-06
1.06247e-07
1.2865e-06
-5.23072e-08
1.28572e-06
1.88942e-08
1.28978e-06
2.83557e-08
1.28499e-06
-6.30346e-08
1.29092e-06
7.44907e-09
1.28604e-06
-4.14018e-08
1.29032e-06
-1.40066e-08
1.28518e-06
-2.76613e-08
1.28907e-06
3.98314e-10
1.28495e-06
-1.35067e-08
1.28355e-06
9.48582e-09
1.27832e-06
1.50486e-08
6.06387e-08
1.25759e-06
1.34266e-06
-1.49943e-07
1.34829e-06
1.01763e-07
1.34812e-06
-7.73837e-08
1.34802e-06
-1.1955e-08
1.35124e-06
1.09008e-07
1.34613e-06
-1.28159e-07
1.34983e-06
1.43364e-07
1.3434e-06
-9.83e-08
1.34488e-06
-6.70534e-08
1.35619e-06
1.44795e-07
1.34642e-06
-1.48823e-07
1.35153e-06
2.13896e-08
1.34949e-06
-1.89456e-09
1.35437e-06
7.49863e-08
1.35231e-06
4.31679e-08
1.35092e-06
-6.53931e-08
1.35126e-06
1.0591e-07
1.34938e-06
-5.04285e-08
1.34784e-06
2.04273e-08
1.35167e-06
2.45313e-08
1.34718e-06
-5.85459e-08
1.35111e-06
3.51597e-09
1.34799e-06
-3.8282e-08
1.35003e-06
-1.60432e-08
1.34715e-06
-2.47863e-08
1.34836e-06
-8.08873e-10
1.34676e-06
-1.18995e-08
1.34288e-06
1.33589e-08
1.3402e-06
1.77274e-08
8.26143e-08
1.31823e-06
1.40604e-06
-1.47627e-07
1.41231e-06
9.54902e-08
1.41059e-06
-7.56664e-08
1.41265e-06
-1.40134e-08
1.41408e-06
1.07577e-07
1.41107e-06
-1.25144e-07
1.41299e-06
1.41446e-07
1.40919e-06
-9.45008e-08
1.4093e-06
-6.71703e-08
1.41925e-06
1.34848e-07
1.4103e-06
-1.39875e-07
1.41424e-06
1.74521e-08
1.41313e-06
-7.87063e-10
1.41792e-06
7.01969e-08
1.41577e-06
4.53227e-08
1.41433e-06
-6.39494e-08
1.41531e-06
1.04925e-07
1.41342e-06
-4.85373e-08
1.41268e-06
2.11622e-08
1.41519e-06
2.20235e-08
1.41172e-06
-5.50714e-08
1.41396e-06
1.27293e-09
1.41196e-06
-3.62783e-08
1.41282e-06
-1.69073e-08
1.41085e-06
-2.28155e-08
1.41128e-06
-1.23633e-09
1.40967e-06
-1.02926e-08
1.40678e-06
1.6248e-08
1.40158e-06
2.29249e-08
1.07464e-07
1.37673e-06
1.47276e-06
-1.4471e-07
1.47866e-06
8.95903e-08
1.47595e-06
-7.29606e-08
1.47911e-06
-1.71661e-08
1.47963e-06
1.07054e-07
1.47782e-06
-1.2333e-07
1.47913e-06
1.40132e-07
1.4766e-06
-9.19724e-08
1.47668e-06
-6.72471e-08
1.48425e-06
1.27278e-07
1.47665e-06
-1.32276e-07
1.47942e-06
1.4677e-08
1.47944e-06
-8.07035e-10
1.48376e-06
6.58788e-08
1.4819e-06
4.71805e-08
1.48007e-06
-6.21176e-08
1.48177e-06
1.03223e-07
1.47959e-06
-4.63566e-08
1.47964e-06
2.1118e-08
1.48124e-06
2.04183e-08
1.47833e-06
-5.21576e-08
1.47978e-06
-1.77826e-10
1.47799e-06
-3.44918e-08
1.47853e-06
-1.74473e-08
1.47645e-06
-2.07313e-08
1.47725e-06
-2.0377e-09
1.47425e-06
-7.29553e-09
1.47349e-06
1.70072e-08
1.4694e-06
2.70128e-08
6.11344e-08
1.51573e-06
1.54311e-06
-1.41606e-07
1.54796e-06
8.47388e-08
1.54491e-06
-6.99061e-08
1.54812e-06
-2.03791e-08
1.54849e-06
1.06683e-07
1.54703e-06
-1.21865e-07
1.54851e-06
1.38646e-07
1.54633e-06
-8.97891e-08
1.54673e-06
-6.76497e-08
1.55221e-06
1.21799e-07
1.54578e-06
-1.25843e-07
1.54785e-06
1.26041e-08
1.54845e-06
-1.40778e-09
1.55246e-06
6.18698e-08
1.55084e-06
4.88063e-08
1.54877e-06
-6.0051e-08
1.55092e-06
1.01075e-07
1.54855e-06
-4.39934e-08
1.5491e-06
2.05756e-08
1.55021e-06
1.93045e-08
1.54763e-06
-4.95719e-08
1.54856e-06
-1.10958e-09
1.54689e-06
-3.28227e-08
1.54697e-06
-1.75255e-08
1.54514e-06
-1.89085e-08
1.54523e-06
-2.12162e-09
1.54333e-06
-5.39803e-09
1.54035e-06
1.99835e-08
1.5342e-06
3.31621e-08
9.18973e-08
1.50344e-06
1.61714e-06
-1.38615e-07
1.62081e-06
8.10661e-08
1.61783e-06
-6.69243e-08
1.6205e-06
-2.30512e-08
1.6211e-06
1.0608e-07
1.61952e-06
-1.20277e-07
1.62144e-06
1.36725e-07
1.61925e-06
-8.76047e-08
1.61963e-06
-6.80238e-08
1.6239e-06
1.17527e-07
1.61823e-06
-1.20177e-07
1.61991e-06
1.09284e-08
1.62052e-06
-2.02275e-09
1.62439e-06
5.80081e-08
1.62296e-06
5.0229e-08
1.62083e-06
-5.79136e-08
1.62327e-06
9.86324e-08
1.62082e-06
-4.1548e-08
1.6217e-06
1.9701e-08
1.62251e-06
1.8494e-08
1.62022e-06
-4.72851e-08
1.62069e-06
-1.57475e-09
1.61915e-06
-3.12888e-08
1.61877e-06
-1.71442e-08
1.61705e-06
-1.71899e-08
1.61661e-06
-1.68283e-09
1.61504e-06
-3.82876e-09
1.61195e-06
2.30769e-08
1.60617e-06
3.89398e-08
1.29328e-07
1.56874e-06
1.69478e-06
-1.35821e-07
1.69756e-06
7.82883e-08
1.69478e-06
-6.4148e-08
1.69677e-06
-2.50358e-08
1.69768e-06
1.05167e-07
1.69585e-06
-1.18447e-07
1.69818e-06
1.34392e-07
1.69596e-06
-8.53811e-08
1.69585e-06
-6.79208e-08
1.69969e-06
1.13688e-07
1.69451e-06
-1.14997e-07
1.69583e-06
9.60999e-09
1.69616e-06
-2.35411e-09
1.69992e-06
5.42479e-08
1.69876e-06
5.13927e-08
1.69662e-06
-5.5774e-08
1.69933e-06
9.59259e-08
1.69685e-06
-3.9069e-08
1.69797e-06
1.85785e-08
1.69856e-06
1.79007e-08
1.69652e-06
-4.52373e-08
1.6967e-06
-1.76078e-09
1.695e-06
-2.95865e-08
1.69484e-06
-1.6988e-08
1.69188e-06
-1.42224e-08
1.69332e-06
-3.1268e-09
1.68723e-06
2.25921e-09
1.69312e-06
1.71856e-08
1.69282e-06
3.92461e-08
7.96479e-08
1.7425e-06
1.77605e-06
-1.33145e-07
1.77835e-06
7.59823e-08
1.77573e-06
-6.15213e-08
1.77714e-06
-2.64528e-08
1.77829e-06
1.04014e-07
1.77629e-06
-1.16437e-07
1.77894e-06
1.31735e-07
1.77669e-06
-8.31329e-08
1.77593e-06
-6.71544e-08
1.77975e-06
1.09867e-07
1.77493e-06
-1.10176e-07
1.77584e-06
8.69338e-09
1.77582e-06
-2.32959e-09
1.77947e-06
5.0593e-08
1.77863e-06
5.22402e-08
1.77648e-06
-5.3623e-08
1.77948e-06
9.29167e-08
1.77693e-06
-3.65174e-08
1.77832e-06
1.71878e-08
1.77863e-06
1.75915e-08
1.77693e-06
-4.35349e-08
1.77671e-06
-1.54368e-09
1.7751e-06
-2.7976e-08
1.77476e-06
-1.66414e-08
1.77148e-06
-1.09412e-08
1.7731e-06
-4.74779e-09
1.76591e-06
9.44919e-09
1.77327e-06
9.82581e-09
1.77293e-06
3.95815e-08
2.20791e-08
1.8305e-06
1.86106e-06
-1.3046e-07
1.86326e-06
7.3787e-08
1.86066e-06
-5.89202e-08
1.86171e-06
-2.75033e-08
1.863e-06
1.02719e-07
1.86091e-06
-1.14346e-07
1.86383e-06
1.28821e-07
1.86153e-06
-8.0839e-08
1.86018e-06
-6.58049e-08
1.8641e-06
1.05954e-07
1.85958e-06
-1.05659e-07
1.8601e-06
8.17248e-09
1.85976e-06
-1.98535e-09
1.86331e-06
4.70378e-08
1.86278e-06
5.27693e-08
1.86059e-06
-5.14347e-08
1.86394e-06
8.95708e-08
1.86126e-06
-3.38331e-08
1.86295e-06
1.5497e-08
1.86291e-06
1.76313e-08
1.86159e-06
-4.22159e-08
1.86091e-06
-8.64943e-10
1.85963e-06
-2.66979e-08
1.85854e-06
-1.55526e-08
1.85633e-06
-8.72611e-09
1.85561e-06
-4.03367e-09
1.85275e-06
1.2315e-08
1.84853e-06
1.40429e-08
1.83858e-06
4.95335e-08
5.82988e-08
1.80236e-06
1.95004e-06
-1.27665e-07
1.95237e-06
7.14654e-08
1.94967e-06
-5.62215e-08
1.95053e-06
-2.83711e-08
1.95188e-06
1.0137e-07
1.94978e-06
-1.12244e-07
1.95291e-06
1.25691e-07
1.95053e-06
-7.84536e-08
1.9488e-06
-6.40807e-08
1.95276e-06
1.01995e-07
1.94852e-06
-1.01414e-07
1.9487e-06
7.98685e-09
1.94812e-06
-1.39946e-09
1.95158e-06
4.35752e-08
1.95134e-06
5.30029e-08
1.94908e-06
-4.91663e-08
1.95279e-06
8.58591e-08
1.9499e-06
-3.09482e-08
1.95192e-06
1.34801e-08
1.95151e-06
1.80395e-08
1.95051e-06
-4.12153e-08
1.94951e-06
1.37599e-10
1.94838e-06
-2.55663e-08
1.94688e-06
-1.40516e-08
1.94533e-06
-7.17482e-09
1.94282e-06
-1.52917e-09
1.94298e-06
1.21598e-08
1.93225e-06
2.47683e-08
1.92811e-06
5.36745e-08
9.02809e-08
1.89613e-06
2.04322e-06
-1.24695e-07
2.0458e-06
6.88814e-08
2.04291e-06
-5.33297e-08
2.04373e-06
-2.91918e-08
2.04507e-06
1.00035e-07
2.04299e-06
-1.10168e-07
2.0463e-06
1.22377e-07
2.04378e-06
-7.59339e-08
2.0419e-06
-6.21959e-08
2.0458e-06
9.80922e-08
2.04181e-06
-9.74259e-08
2.04173e-06
8.07382e-09
2.041e-06
-6.73016e-10
2.04435e-06
4.02233e-08
2.0444e-06
5.29601e-08
2.042e-06
-4.67752e-08
2.04608e-06
8.17833e-08
2.04296e-06
-2.7832e-08
2.04528e-06
1.11618e-08
2.04458e-06
1.87462e-08
2.04371e-06
-4.0353e-08
2.04271e-06
1.1378e-09
2.0412e-06
-2.40577e-08
2.04026e-06
-1.31068e-08
2.03765e-06
-4.56441e-09
2.0359e-06
2.24646e-10
2.03399e-06
1.40654e-08
2.0271e-06
3.16594e-08
2.01599e-06
6.4778e-08
1.24211e-07
1.98206e-06
2.14083e-06
-1.21521e-07
2.14375e-06
6.59612e-08
2.1406e-06
-5.01809e-08
2.14146e-06
-3.00552e-08
2.14273e-06
9.87669e-08
2.14069e-06
-1.08124e-07
2.14416e-06
1.18903e-07
2.14148e-06
-7.32508e-08
2.1396e-06
-6.03136e-08
2.14335e-06
9.43391e-08
2.13961e-06
-9.36878e-08
2.13929e-06
8.3894e-09
2.13852e-06
9.67037e-11
2.14174e-06
3.70093e-08
2.14203e-06
5.26672e-08
2.1395e-06
-4.42467e-08
2.1439e-06
7.73852e-08
2.14057e-06
-2.45023e-08
2.14309e-06
8.63963e-09
2.14228e-06
1.95619e-08
2.14125e-06
-3.93264e-08
2.14068e-06
1.71046e-09
2.13824e-06
-2.16202e-08
2.13864e-06
-1.35103e-08
2.13387e-06
2.13744e-10
2.13437e-06
-2.81227e-10
2.12741e-06
2.10275e-08
2.13298e-06
2.60917e-08
2.15667e-06
4.10814e-08
4.85857e-08
2.2323e-06
2.24309e-06
-1.18125e-07
2.24639e-06
6.26646e-08
2.24294e-06
-4.67356e-08
2.24391e-06
-3.10172e-08
2.24507e-06
9.76013e-08
2.24305e-06
-1.06107e-07
2.24668e-06
1.15278e-07
2.24381e-06
-7.03797e-08
2.24205e-06
-5.85518e-08
2.24557e-06
9.08187e-08
2.2421e-06
-9.02171e-08
2.24155e-06
8.93162e-09
2.24085e-06
8.00852e-10
2.24386e-06
3.40014e-08
2.24444e-06
5.20836e-08
2.24169e-06
-4.14911e-08
2.24647e-06
7.26067e-08
2.24278e-06
-2.08177e-08
2.2457e-06
5.71848e-09
2.24448e-06
2.07883e-08
2.24381e-06
-3.86575e-08
2.24277e-06
2.74465e-09
2.24091e-06
-1.97563e-08
2.24016e-06
-1.27593e-08
2.23711e-06
3.25681e-09
2.23522e-06
1.61032e-09
2.23227e-06
2.39791e-08
2.22502e-06
3.33405e-08
2.20918e-06
5.69265e-08
7.96827e-08
2.17808e-06
2.35025e-06
-1.14499e-07
2.35395e-06
5.8967e-08
2.35018e-06
-4.29648e-08
2.35128e-06
-3.21162e-08
2.35231e-06
9.65688e-08
2.35031e-06
-1.04108e-07
2.35408e-06
1.11502e-07
2.35101e-06
-6.73005e-08
2.34944e-06
-5.6991e-08
2.35267e-06
8.75913e-08
2.34948e-06
-8.70232e-08
2.34872e-06
9.68962e-09
2.34814e-06
1.38337e-09
2.35092e-06
3.12233e-08
2.35178e-06
5.12165e-08
2.34879e-06
-3.85003e-08
2.35392e-06
6.74801e-08
2.34988e-06
-1.67805e-08
2.35318e-06
2.41535e-09
2.35155e-06
2.24191e-08
2.35131e-06
-3.84139e-08
2.3496e-06
4.45372e-09
2.34877e-06
-1.89283e-08
2.34606e-06
-1.00425e-08
2.34599e-06
3.32658e-09
2.34041e-06
7.19099e-09
2.34203e-06
2.23566e-08
2.32641e-06
4.8955e-08
2.31694e-06
6.63997e-08
1.03963e-07
2.29266e-06
2.46254e-06
-1.10639e-07
2.46665e-06
5.48535e-08
2.46253e-06
-3.88452e-08
2.46379e-06
-3.33743e-08
2.46467e-06
9.56848e-08
2.46268e-06
-1.02117e-07
2.46661e-06
1.0757e-07
2.4633e-06
-6.39921e-08
2.46201e-06
-5.56995e-08
2.46488e-06
8.47253e-08
2.462e-06
-8.41425e-08
2.46101e-06
1.06788e-08
2.46059e-06
1.80424e-09
2.46314e-06
2.86725e-08
2.46422e-06
5.01351e-08
2.46113e-06
-3.54071e-08
2.46637e-06
6.22404e-08
2.4623e-06
-1.27155e-08
2.46548e-06
-7.66701e-10
2.46419e-06
2.37087e-08
2.46325e-06
-3.74668e-08
2.46259e-06
5.11116e-09
2.46029e-06
-1.6624e-08
2.45927e-06
-9.02853e-09
2.45656e-06
6.03388e-09
2.45322e-06
1.05352e-08
2.45164e-06
2.39395e-08
2.4426e-06
5.79881e-08
2.42455e-06
8.44547e-08
1.38058e-07
2.39045e-06
2.5802e-06
-1.06543e-07
2.58474e-06
5.03113e-08
2.58025e-06
-3.43587e-08
2.58168e-06
-3.48024e-08
2.58242e-06
9.49456e-08
2.58042e-06
-1.00112e-07
2.58453e-06
1.03461e-07
2.58096e-06
-6.04228e-08
2.57999e-06
-5.47373e-08
2.58244e-06
8.22743e-08
2.5799e-06
-8.15964e-08
2.57867e-06
1.19045e-08
2.57843e-06
2.04984e-09
2.58077e-06
2.63329e-08
2.58201e-06
4.88884e-08
2.57888e-06
-3.22713e-08
2.58415e-06
5.69705e-08
2.58014e-06
-8.70434e-09
2.58308e-06
-3.71238e-09
2.58231e-06
2.44828e-08
2.58035e-06
-3.55045e-08
2.58124e-06
4.213e-09
2.57675e-06
-1.2129e-08
2.57842e-06
-1.07042e-08
2.57213e-06
1.23335e-08
2.57124e-06
1.14198e-08
2.56402e-06
3.11621e-08
2.58025e-06
4.17526e-08
2.61627e-06
4.84392e-08
5.07909e-08
2.70354e-06
2.70349e-06
-1.02209e-07
2.70847e-06
4.5331e-08
2.70362e-06
-2.94987e-08
2.70521e-06
-3.63969e-08
2.70583e-06
9.43245e-08
2.70378e-06
-9.80601e-08
2.70809e-06
9.91518e-08
2.70422e-06
-5.65558e-08
2.70364e-06
-5.41576e-08
2.70562e-06
8.0291e-08
2.70345e-06
-7.94184e-08
2.70195e-06
1.33982e-08
2.70193e-06
2.07655e-09
2.704e-06
2.42636e-08
2.7055e-06
4.73884e-08
2.7022e-06
-2.8972e-08
2.70767e-06
5.14949e-08
2.70332e-06
-4.357e-09
2.7068e-06
-7.18876e-09
2.70526e-06
2.60259e-08
2.70422e-06
-3.44652e-08
2.70386e-06
4.57522e-09
2.70105e-06
-9.32431e-09
2.70003e-06
-9.68397e-09
2.6973e-06
1.50624e-08
2.69371e-06
1.50122e-08
2.69119e-06
3.36813e-08
2.6817e-06
5.1244e-08
2.66014e-06
6.99951e-08
8.56256e-08
2.62531e-06
2.83269e-06
-9.76312e-08
2.83812e-06
3.99017e-08
2.83288e-06
-2.42574e-08
2.83464e-06
-3.81621e-08
2.83517e-06
9.38023e-08
2.83305e-06
-9.59459e-08
2.83756e-06
9.46402e-08
2.8334e-06
-5.23894e-08
2.83318e-06
-5.39445e-08
2.83474e-06
7.8737e-08
2.83284e-06
-7.75245e-08
2.83119e-06
1.50514e-08
2.83127e-06
2.00147e-09
2.83319e-06
2.23371e-08
2.8348e-06
4.57785e-08
2.83147e-06
-2.56397e-08
2.83705e-06
4.59153e-08
2.83241e-06
2.80288e-10
2.83647e-06
-1.12504e-08
2.83395e-06
2.85511e-08
2.83425e-06
-3.47689e-08
2.83187e-06
6.95586e-09
2.83192e-06
-9.37295e-09
2.827e-06
-4.76065e-09
2.83006e-06
1.20033e-08
2.82094e-06
2.41282e-08
2.82368e-06
3.0941e-08
2.80267e-06
7.22583e-08
2.79231e-06
8.0356e-08
1.09881e-07
2.76805e-06
2.96809e-06
-9.28208e-08
2.97395e-06
3.40409e-08
2.96836e-06
-1.86712e-08
2.97024e-06
-4.00447e-08
2.97074e-06
9.3305e-08
2.96848e-06
-9.36849e-08
2.97327e-06
8.98459e-08
2.96871e-06
-4.78276e-08
2.96898e-06
-5.42107e-08
2.96997e-06
7.77452e-08
2.96847e-06
-7.60299e-08
2.96655e-06
1.69742e-08
2.96684e-06
1.709e-09
2.96849e-06
2.06899e-08
2.97039e-06
4.38807e-08
2.96691e-06
-2.21616e-08
2.97246e-06
4.03641e-08
2.96806e-06
4.67976e-09
2.97154e-06
-1.47265e-08
2.97012e-06
2.99693e-08
2.96852e-06
-3.31693e-08
2.96877e-06
6.71038e-09
2.96532e-06
-5.92802e-09
2.96381e-06
-3.24686e-09
2.9618e-06
1.40074e-08
2.95769e-06
2.82459e-08
2.95646e-06
3.21676e-08
2.94515e-06
8.35653e-08
2.91928e-06
1.0623e-07
1.48011e-07
2.88115e-06
3.10998e-06
-8.77988e-08
3.11625e-06
2.77746e-08
3.11037e-06
-1.27875e-08
3.11233e-06
-4.20034e-08
3.11282e-06
9.28058e-08
3.11039e-06
-9.1249e-08
3.11544e-06
8.47954e-08
3.11057e-06
-4.29595e-08
3.11112e-06
-5.47635e-08
3.11187e-06
7.69997e-08
3.11031e-06
-7.44722e-08
3.1088e-06
1.84879e-08
3.10845e-06
2.05239e-09
3.11082e-06
1.83207e-08
3.11166e-06
4.30438e-08
3.10985e-06
-2.03477e-08
3.11304e-06
3.71748e-08
3.1122e-06
5.51202e-09
3.11048e-06
-1.30044e-08
3.1156e-06
2.48486e-08
3.10614e-06
-2.37022e-08
3.1154e-06
-2.54915e-09
3.10278e-06
6.69084e-09
3.11095e-06
-1.14169e-08
3.09939e-06
2.5567e-08
3.10175e-06
2.588e-08
3.09123e-06
4.26854e-08
3.12482e-06
4.99802e-08
3.17031e-06
6.07354e-08
5.54872e-08
3.26284e-06
3.2587e-06
-8.25908e-08
3.26532e-06
2.11526e-08
3.25925e-06
-6.71537e-09
3.26117e-06
-4.39256e-08
3.26177e-06
9.221e-08
3.25903e-06
-8.85106e-08
3.26442e-06
7.94114e-08
3.25919e-06
-3.77308e-08
3.26008e-06
-5.56549e-08
3.26052e-06
7.65587e-08
3.25904e-06
-7.29982e-08
3.25762e-06
1.99168e-08
3.25728e-06
2.38904e-09
3.25921e-06
1.6391e-08
3.26115e-06
4.11058e-08
3.2574e-06
-1.66037e-08
3.26341e-06
3.11655e-08
3.25862e-06
1.03005e-08
3.26235e-06
-1.67299e-08
3.26022e-06
2.69782e-08
3.25997e-06
-2.34513e-08
3.25741e-06
5.99811e-12
3.2583e-06
5.80667e-09
3.25091e-06
-4.03163e-09
3.25656e-06
1.99164e-08
3.24796e-06
3.44843e-08
3.25013e-06
4.05181e-08
3.23055e-06
6.95582e-08
3.20605e-06
8.52303e-08
9.76563e-08
3.16388e-06
3.41455e-06
-7.72129e-08
3.42148e-06
1.42271e-08
3.41535e-06
-5.83243e-10
3.4171e-06
-4.56797e-08
3.41791e-06
9.14017e-08
3.41472e-06
-8.53185e-08
3.42054e-06
7.35886e-08
3.41487e-06
-3.206e-08
3.41615e-06
-5.6938e-08
3.41632e-06
7.6394e-08
3.41489e-06
-7.15709e-08
3.41352e-06
2.129e-08
3.41334e-06
2.5687e-09
3.41463e-06
1.50944e-08
3.41777e-06
3.79736e-08
3.41221e-06
-1.10498e-08
3.42035e-06
2.30293e-08
3.41356e-06
1.70856e-08
3.41902e-06
-2.21823e-08
3.41514e-06
3.08507e-08
3.41669e-06
-2.50001e-08
3.41192e-06
4.77676e-09
3.41551e-06
2.21409e-09
3.40544e-06
6.04082e-09
3.41333e-06
1.20312e-08
3.40406e-06
4.3748e-08
3.40999e-06
3.45879e-08
3.38624e-06
9.33148e-08
3.3584e-06
1.13068e-07
1.42453e-07
3.3136e-06
3.57792e-06
-7.17171e-08
3.58504e-06
7.10241e-09
3.57902e-06
5.44114e-09
3.58047e-06
-4.71321e-08
3.58155e-06
9.03217e-08
3.5779e-06
-8.16693e-08
3.58399e-06
6.75006e-08
3.57827e-06
-2.63452e-08
3.57924e-06
-5.79082e-08
3.58023e-06
7.54072e-08
3.57721e-06
-6.85501e-08
3.5784e-06
2.0094e-08
3.57481e-06
6.15827e-09
3.58013e-06
9.77653e-09
3.5783e-06
3.98017e-08
3.57925e-06
-1.19963e-08
3.57883e-06
2.34482e-08
3.58339e-06
1.25307e-08
3.57381e-06
-1.26064e-08
3.58828e-06
1.63779e-08
3.56954e-06
-6.25407e-09
3.58679e-06
-1.24754e-08
3.56804e-06
2.09614e-08
3.58227e-06
-8.18486e-09
3.56424e-06
3.00604e-08
3.57385e-06
3.4133e-08
3.55838e-06
5.00628e-08
3.60794e-06
4.37506e-08
3.66009e-06
6.09162e-08
5.43939e-08
3.74815e-06
3.74915e-06
-6.61589e-08
3.75633e-06
-8.47991e-11
3.75068e-06
1.11e-08
3.75158e-06
-4.80354e-08
3.75315e-06
8.87531e-08
3.74879e-06
-7.73106e-08
3.75533e-06
6.09552e-08
3.74936e-06
-2.03734e-08
3.75033e-06
-5.88748e-08
3.75157e-06
7.41688e-08
3.74813e-06
-6.511e-08
3.74962e-06
1.86041e-08
3.74654e-06
9.23429e-09
3.74992e-06
6.40094e-09
3.75221e-06
3.75098e-08
3.74579e-06
-5.57512e-09
3.75652e-06
1.27186e-08
3.74624e-06
2.28121e-08
3.75465e-06
-2.10232e-08
3.74831e-06
2.27171e-08
3.75228e-06
-1.02175e-08
3.74427e-06
-4.46989e-09
3.75106e-06
1.4168e-08
3.7395e-06
3.38458e-09
3.74874e-06
2.08119e-08
3.74128e-06
4.15996e-08
3.74015e-06
5.11914e-08
3.71826e-06
6.56375e-08
3.68825e-06
9.09244e-08
1.0443e-07
3.63822e-06
3.92861e-06
-6.05784e-08
3.93569e-06
-7.17036e-09
3.93077e-06
1.60271e-08
3.93079e-06
-4.80616e-08
3.9331e-06
8.64488e-08
3.92775e-06
-7.19667e-08
3.93491e-06
5.37986e-08
3.92861e-06
-1.40695e-08
3.92957e-06
-5.9837e-08
3.93115e-06
7.25893e-08
3.9272e-06
-6.11641e-08
3.92911e-06
1.66981e-08
3.9261e-06
1.22454e-08
3.92891e-06
3.58949e-09
3.93236e-06
3.40552e-08
3.92356e-06
3.22931e-09
3.93795e-06
-1.67225e-09
3.92296e-06
3.78045e-08
3.93725e-06
-3.53218e-08
3.92356e-06
3.64094e-08
3.9373e-06
-2.39577e-08
3.91768e-06
1.51562e-08
3.93911e-06
-7.26728e-09
3.91348e-06
2.90139e-08
3.93785e-06
-3.55968e-09
3.91959e-06
5.98635e-08
3.93895e-06
3.18336e-08
3.89424e-06
1.1035e-07
3.86203e-06
1.23133e-07
1.52497e-07
3.81396e-06
4.11674e-06
-5.50667e-08
4.12351e-06
-1.39467e-08
4.11963e-06
1.99142e-08
4.11866e-06
-4.70922e-08
4.12154e-06
8.35671e-08
4.11559e-06
-6.60194e-08
4.12257e-06
4.68213e-08
4.11718e-06
-8.67531e-09
4.11643e-06
-5.90861e-08
4.12066e-06
6.83528e-08
4.11287e-06
-5.33739e-08
4.12024e-06
9.32551e-09
4.10985e-06
2.26394e-08
4.1225e-06
-9.06327e-09
4.11188e-06
4.46806e-08
4.12291e-06
-7.80509e-09
4.11144e-06
9.79568e-09
4.12725e-06
2.20007e-08
4.10724e-06
-1.53143e-08
4.1303e-06
1.33543e-08
4.10594e-06
3.945e-10
4.12524e-06
-4.13832e-09
4.10642e-06
1.15513e-08
4.11931e-06
1.61181e-08
4.10175e-06
1.40084e-08
4.12144e-06
4.01715e-08
4.11099e-06
4.22813e-08
4.16198e-06
5.93632e-08
4.21494e-06
7.01714e-08
8.22875e-08
4.28515e-06
4.3139e-06
-4.96634e-08
4.32032e-06
-2.0364e-08
4.31751e-06
2.27197e-08
4.31547e-06
-4.50534e-08
4.31925e-06
7.9788e-08
4.31211e-06
-5.88746e-08
4.31971e-06
3.92165e-08
4.31395e-06
-2.90997e-09
4.31347e-06
-5.86133e-08
4.31739e-06
6.44312e-08
4.31042e-06
-4.63951e-08
4.31596e-06
3.77977e-09
4.30875e-06
2.98468e-08
4.31756e-06
-1.7865e-08
4.31045e-06
5.17815e-08
4.31885e-06
-1.61983e-08
4.3085e-06
2.01396e-08
4.32471e-06
5.79761e-09
4.30352e-06
5.86842e-09
4.32747e-06
-1.0587e-08
4.30299e-06
2.48737e-08
4.32279e-06
-2.39413e-08
4.30259e-06
3.1748e-08
4.31845e-06
2.63953e-10
4.296e-06
3.64513e-08
4.31778e-06
1.8394e-08
4.3145e-06
4.55594e-08
4.36522e-06
8.64602e-09
4.41446e-06
2.09344e-08
1.1908e-09
4.49555e-06
4.52066e-06
-4.45486e-08
4.52598e-06
-2.56862e-08
4.52533e-06
2.33708e-08
4.52126e-06
-4.09806e-08
4.52676e-06
7.42805e-08
4.51801e-06
-5.0119e-08
4.52616e-06
3.10705e-08
4.52045e-06
2.79986e-09
4.51959e-06
-5.7763e-08
4.52378e-06
6.02424e-08
4.51747e-06
-4.00774e-08
4.52037e-06
8.77087e-10
4.51954e-06
3.0679e-08
4.51686e-06
-1.51933e-08
4.52612e-06
4.25243e-08
4.51454e-06
-4.61433e-09
4.52673e-06
7.95036e-09
4.5179e-06
1.46206e-08
4.52349e-06
2.83509e-10
4.51781e-06
-4.90631e-09
4.52392e-06
1.87669e-08
4.51168e-06
-1.17031e-08
4.52098e-06
2.24471e-08
4.50986e-06
1.13822e-08
4.51779e-06
2.85228e-08
4.51103e-06
2.51549e-08
4.51322e-06
4.33716e-08
4.48412e-06
3.77446e-08
4.44658e-06
5.8473e-08
5.89231e-08
4.38885e-06
4.73717e-06
-3.96012e-08
4.74221e-06
-3.07244e-08
4.74161e-06
2.39696e-08
4.73836e-06
-3.77355e-08
4.74247e-06
7.01706e-08
4.7354e-06
-4.30449e-08
4.74106e-06
2.54054e-08
4.73796e-06
5.90222e-09
4.73451e-06
-5.43075e-08
4.74136e-06
5.33873e-08
4.73282e-06
-3.15384e-08
4.73675e-06
-3.05656e-09
4.73736e-06
3.0076e-08
4.72999e-06
-7.82703e-09
4.74626e-06
2.62569e-08
4.7265e-06
1.51416e-08
4.74657e-06
-1.21132e-08
4.73081e-06
3.03818e-08
4.74397e-06
-1.28761e-08
4.72974e-06
9.3228e-09
4.74619e-06
2.31623e-09
4.72544e-06
9.04304e-09
4.7448e-06
3.08716e-09
4.72764e-06
2.85394e-08
4.7397e-06
1.64659e-08
4.71909e-06
4.57635e-08
4.71702e-06
4.54424e-08
4.6911e-06
6.36669e-08
4.6846e-06
6.49675e-08
9.12614e-08
4.65227e-06
4.96433e-06
-3.51369e-08
4.96726e-06
-3.36533e-08
4.97007e-06
2.11664e-08
4.96329e-06
-3.09582e-08
4.97149e-06
6.1964e-08
4.95986e-06
-3.14118e-08
4.97021e-06
1.50595e-08
4.96204e-06
1.40731e-08
4.96375e-06
-5.60235e-08
4.96574e-06
5.14032e-08
4.96112e-06
-2.69213e-08
4.96302e-06
-4.96003e-09
4.96323e-06
2.98702e-08
4.95887e-06
-3.46314e-09
4.96967e-06
1.54506e-08
4.95758e-06
2.72343e-08
4.96727e-06
-2.18061e-08
4.96304e-06
3.46139e-08
4.96312e-06
-1.29523e-08
4.96086e-06
1.15811e-08
4.96409e-06
-9.12465e-10
4.9546e-06
1.85262e-08
4.95736e-06
3.3314e-10
4.95334e-06
3.2561e-08
4.95315e-06
1.66534e-08
4.95455e-06
4.43617e-08
4.95274e-06
4.72505e-08
4.9238e-06
9.26093e-08
4.87974e-06
1.09029e-07
1.27869e-07
4.84313e-06
5.20206e-06
-3.08818e-08
5.2048e-06
-3.63956e-08
5.20636e-06
1.96057e-08
5.20315e-06
-2.77481e-08
5.20657e-06
5.85462e-08
5.20097e-06
-2.58066e-08
5.20354e-06
1.24832e-08
5.20383e-06
1.37833e-08
5.19579e-06
-4.79814e-08
5.21e-06
3.71982e-08
5.19057e-06
-7.49962e-09
5.20989e-06
-2.42744e-08
5.18998e-06
4.97741e-08
5.20889e-06
-2.23698e-08
5.19145e-06
3.28901e-08
5.21181e-06
6.87646e-09
5.18801e-06
1.99435e-09
5.21658e-06
6.04196e-09
5.18823e-06
1.53966e-08
5.21297e-06
-1.31596e-08
5.19219e-06
1.98675e-08
5.20934e-06
1.37568e-09
5.18749e-06
2.21841e-08
5.20118e-06
1.88772e-08
5.17749e-06
4.03411e-08
5.19019e-06
3.16574e-08
5.19684e-06
4.06038e-08
5.26837e-06
2.10759e-08
5.35467e-06
2.27336e-08
2.40034e-08
5.45853e-06
5.45155e-06
-2.72405e-08
5.45137e-06
-3.62129e-08
5.4567e-06
1.42673e-08
5.45009e-06
-2.11308e-08
5.45855e-06
5.00844e-08
5.44621e-06
-1.3466e-08
5.45731e-06
1.37696e-09
5.44712e-06
2.39764e-08
5.452e-06
-5.28586e-08
5.44972e-06
3.94783e-08
5.4504e-06
-8.18507e-09
5.44692e-06
-2.07932e-08
5.4515e-06
4.51924e-08
5.44564e-06
-1.65099e-08
5.45235e-06
2.61849e-08
5.44896e-06
1.02657e-08
5.44762e-06
3.33085e-09
5.45058e-06
3.08168e-09
5.4483e-06
1.76808e-08
5.44561e-06
-1.04683e-08
5.44846e-06
1.70202e-08
5.44253e-06
7.30521e-09
5.44124e-06
2.34665e-08
5.44067e-06
1.94552e-08
5.44232e-06
3.86817e-08
5.43927e-06
3.47164e-08
5.42921e-06
5.06627e-08
5.40242e-06
4.78575e-08
5.3636e-06
6.15619e-08
6.17034e-08
5.3259e-06
5.71258e-06
-2.38627e-08
5.71154e-06
-3.51687e-08
5.71604e-06
9.76833e-09
5.71309e-06
-1.81867e-08
5.71706e-06
4.61107e-08
5.71091e-06
-7.30965e-09
5.71392e-06
-1.63365e-09
5.71142e-06
2.64763e-08
5.70927e-06
-5.07056e-08
5.71227e-06
3.64711e-08
5.71123e-06
-7.14027e-09
5.70576e-06
-1.53288e-08
5.71622e-06
3.4741e-08
5.70167e-06
-1.96347e-09
5.71706e-06
1.07968e-08
5.70596e-06
2.13673e-08
5.71261e-06
-3.32825e-09
5.70805e-06
7.64198e-09
5.71387e-06
1.18671e-08
5.70349e-06
-9.12536e-11
5.71359e-06
6.91978e-09
5.70454e-06
1.63581e-08
5.70887e-06
1.91356e-08
5.70151e-06
2.68191e-08
5.7011e-06
3.90823e-08
5.68715e-06
4.86718e-08
5.68147e-06
5.63441e-08
5.66472e-06
6.46008e-08
5.64985e-06
7.64413e-08
8.49257e-08
5.62662e-06
5.98613e-06
-2.07984e-08
5.9843e-06
-3.33432e-08
5.9881e-06
5.97186e-09
5.98702e-06
-1.7106e-08
5.99034e-06
4.27897e-08
5.98437e-06
-1.34363e-09
5.98786e-06
-5.11621e-09
5.98398e-06
3.03481e-08
5.98335e-06
-5.00734e-08
5.98408e-06
3.57402e-08
5.9864e-06
-9.45768e-09
5.97733e-06
-6.2594e-09
5.99115e-06
2.09256e-08
5.97429e-06
1.48882e-08
5.99009e-06
-4.99877e-09
5.9794e-06
3.20623e-08
5.98455e-06
-8.48267e-09
5.98119e-06
1.10034e-08
5.9846e-06
8.45919e-09
5.97721e-06
7.29058e-09
5.98237e-06
1.76616e-09
5.97819e-06
2.05315e-08
5.97989e-06
1.74399e-08
5.97502e-06
3.16943e-08
5.97443e-06
3.96681e-08
5.96135e-06
6.17485e-08
5.95388e-06
6.38199e-08
5.93736e-06
8.11156e-08
5.92491e-06
8.88922e-08
1.00365e-07
5.90947e-06
6.27315e-06
-1.84588e-08
6.26863e-06
-2.8824e-08
6.27604e-06
-1.43694e-09
6.2707e-06
-1.17651e-08
6.27983e-06
3.36533e-08
6.26824e-06
1.02533e-08
6.27608e-06
-1.29622e-08
6.26977e-06
3.66564e-08
6.26985e-06
-5.01505e-08
6.27064e-06
3.49553e-08
6.27237e-06
-1.11938e-08
6.26516e-06
9.50899e-10
6.27542e-06
1.06713e-08
6.26414e-06
2.6165e-08
6.27376e-06
-1.46155e-08
6.26657e-06
3.92478e-08
6.27028e-06
-1.21963e-08
6.2649e-06
1.63901e-08
6.27189e-06
1.47088e-09
6.26233e-06
1.68477e-08
6.26776e-06
-3.66957e-09
6.26115e-06
2.71478e-08
6.26317e-06
1.5421e-08
6.26094e-06
3.39259e-08
6.26934e-06
3.12669e-08
6.26436e-06
6.67227e-08
6.25394e-06
7.42476e-08
6.21816e-06
1.16892e-07
6.16941e-06
1.37642e-07
1.26811e-07
6.14296e-06
6.57241e-06
-1.54028e-08
6.57263e-06
-2.90396e-08
6.56861e-06
2.58039e-09
6.57729e-06
-2.04391e-08
6.57009e-06
4.0853e-08
6.57974e-06
5.97446e-10
6.56391e-06
2.86505e-09
6.58321e-06
1.73641e-08
6.55774e-06
-2.46842e-08
6.58295e-06
9.75028e-09
6.56006e-06
1.1691e-08
6.57787e-06
-1.68554e-08
6.56054e-06
2.80004e-08
6.57866e-06
8.04339e-09
6.55824e-06
5.80422e-09
6.5804e-06
1.70865e-08
6.55923e-06
8.97878e-09
6.57757e-06
-1.95085e-09
6.56278e-06
1.62625e-08
6.57338e-06
6.2439e-09
6.5609e-06
8.81382e-09
6.5702e-06
1.78458e-08
6.55518e-06
3.0438e-08
6.55667e-06
3.24356e-08
6.54797e-06
3.99701e-08
6.5769e-06
3.77924e-08
6.61004e-06
4.1103e-08
6.69112e-06
3.58113e-08
6.79176e-06
3.70043e-08
5.60156e-08
6.86256e-06
6.88833e-06
-1.39453e-08
6.88194e-06
-2.26485e-08
6.89073e-06
-6.20362e-09
6.88123e-06
-1.09476e-08
6.89732e-06
2.47667e-08
6.88021e-06
1.77109e-08
6.89348e-06
-1.041e-08
6.88193e-06
2.89166e-08
6.88822e-06
-3.09732e-08
6.88028e-06
1.76897e-08
6.89187e-06
9.72535e-11
6.87549e-06
-4.74256e-10
6.89149e-06
1.2007e-08
6.87792e-06
2.16111e-08
6.88705e-06
-3.32517e-09
6.88069e-06
2.34403e-08
6.88598e-06
3.68739e-09
6.87766e-06
6.37757e-09
6.88474e-06
9.17783e-09
6.87503e-06
1.59545e-08
6.87817e-06
5.67248e-09
6.87784e-06
1.81798e-08
6.88869e-06
1.95846e-08
6.89746e-06
2.36642e-08
6.90906e-06
2.83674e-08
6.89653e-06
5.03311e-08
6.87091e-06
6.67149e-08
6.82124e-06
8.54887e-08
6.75666e-06
1.01585e-07
7.93578e-08
6.73331e-06
7.2161e-06
-1.0904e-08
7.21858e-06
-2.51288e-08
7.20961e-06
2.75947e-09
7.22165e-06
-2.29855e-08
7.2115e-06
3.49193e-08
7.22725e-06
1.95538e-09
7.20387e-06
1.29727e-08
7.2315e-06
1.29161e-09
7.19813e-06
2.39367e-09
7.23015e-06
-1.43309e-08
7.2011e-06
2.91435e-08
7.22314e-06
-2.25069e-08
7.20338e-06
3.17661e-08
7.22157e-06
3.42036e-09
7.2032e-06
1.50456e-08
7.22233e-06
4.30268e-09
7.2047e-06
2.13247e-08
7.21767e-06
-6.59668e-09
7.2065e-06
2.03468e-08
7.21493e-06
7.52248e-09
7.20342e-06
1.71858e-08
7.20925e-06
1.23472e-08
7.19642e-06
3.24227e-08
7.19628e-06
2.37964e-08
7.19742e-06
2.72289e-08
7.22987e-06
1.78839e-08
7.27614e-06
2.04478e-08
7.35882e-06
2.80057e-09
7.46232e-06
-1.90727e-09
1.31226e-08
7.52855e-06
7.56288e-06
-9.56045e-09
7.55779e-06
-2.00371e-08
7.5628e-06
-2.24532e-09