/*--------------------------------*- C++ -*----------------------------------*\
| =========                 |                                                 |
| \\      /  F ield         | OpenFOAM: The Open Source CFD Toolbox           |
|  \\    /   O peration     | Version:  v2006                                 |
|   \\  /    A nd           | Website:  www.openfoam.com                      |
|    \\/     M anipulation  |                                                 |
\*---------------------------------------------------------------------------*/
FoamFile
{
    version     2.0;
    format      ascii;
    class       volVectorField;
    location    "0.3";
    object      U;
}
// * * * * * * * * * * * * * * * * * * * * * * * * * * * * * * * * * * * * * //

dimensions      [0 1 -1 0 0 0 0];


internalField   nonuniform List<vector> 
26400
(
(0.915283 -0.00229518 0)
(1.08037 0.00182592 0)
(0.925248 -0.00119155 0)
(1.07803 -0.000422881 0)
(0.923921 0.00246747 0)
(1.08457 -0.00310548 0)
(0.916538 0.00355918 0)
(1.09302 -0.00305455 0)
(0.901489 -0.00111775 0)
(1.09771 0.00442606 0)
(0.91988 -0.00478235 0)
(1.07666 0.00106523 0)
(0.932069 -0.000145836 0)
(1.07337 0.00257207 0)
(0.935664 0.00152052 0)
(1.07508 -0.00276354 0)
(0.930775 0.00427725 0)
(1.07996 -0.00272841 0)
(0.920387 0.00108174 0)
(1.08474 0.00123621 0)
(0.919238 -0.00307367 0)
(1.08408 0.000830412 0)
(0.921404 -0.00247682 0)
(1.08477 -0.000413653 0)
(0.919454 -0.00207945 0)
(1.08557 0.000471597 0)
(0.917083 -0.00144666 0)
(1.08648 0.000546484 0)
(0.909531 -0.000495859 0)
(1.08587 0.000394005 0)
(0.921634 -0.00228863 0)
(1.07449 0.00179957 0)
(0.932558 -0.00125609 0)
(1.0717 -0.000295332 0)
(0.932236 0.00228807 0)
(1.07636 -0.00289195 0)
(0.925641 0.00332303 0)
(1.08234 -0.00269487 0)
(0.912846 -0.00135012 0)
(1.08563 0.00422648 0)
(0.9337 -0.00452282 0)
(1.06559 0.000977789 0)
(0.945692 -0.000176947 0)
(1.06114 0.00262036 0)
(0.951797 0.0013396 0)
(1.05965 -0.00247275 0)
(0.949265 0.00398224 0)
(1.05981 -0.00226873 0)
(0.943897 0.000767489 0)
(1.05873 0.00148781 0)
(0.950122 -0.00318942 0)
(1.0522 0.000821159 0)
(0.959441 -0.00252025 0)
(1.04558 -0.00028678 0)
(0.966772 -0.00209537 0)
(1.03564 0.000536371 0)
(0.977403 -0.00142443 0)
(1.02214 0.000798798 0)
(0.987321 0.000158804 0)
(1.00226 0.0017177 0)
(0.933356 -0.00228179 0)
(1.0629 0.00174446 0)
(0.94534 -0.0012965 0)
(1.05932 -0.000223368 0)
(0.947205 0.0021406 0)
(1.06163 -0.00270037 0)
(0.942457 0.00312718 0)
(1.06443 -0.00240389 0)
(0.933586 -0.00151081 0)
(1.06486 0.00400185 0)
(0.955419 -0.00426211 0)
(1.04634 0.000812071 0)
(0.966226 -0.000148099 0)
(1.04157 0.00254552 0)
(0.974299 0.00130981 0)
(1.03753 -0.00232862 0)
(0.974102 0.00386348 0)
(1.03485 -0.00205313 0)
(0.972818 0.000719398 0)
(1.03012 0.00132592 0)
(0.981615 -0.00299094 0)
(1.02189 0.00049321 0)
(0.989678 -0.00219772 0)
(1.0166 -0.000694525 0)
(0.994152 -0.00167991 0)
(1.01001 8.91134e-05 0)
(0.998887 -0.000964622 0)
(1.00363 0.00048608 0)
(0.999348 0.000935157 0)
(0.997118 0.0038243 0)
(0.948397 -0.00226596 0)
(1.04763 0.00166499 0)
(0.960502 -0.00130646 0)
(1.04324 -0.000201992 0)
(0.964669 0.00206122 0)
(1.0436 -0.00257815 0)
(0.962069 0.00302342 0)
(1.04397 -0.00222939 0)
(0.957005 -0.00157036 0)
(1.04236 0.00372896 0)
(0.976691 -0.00400946 0)
(1.02651 0.00065043 0)
(0.984449 -8.06982e-05 0)
(1.02354 0.0023939 0)
(0.992064 0.00137198 0)
(1.01939 -0.00228745 0)
(0.992005 0.00387046 0)
(1.01738 -0.0019916 0)
(0.991419 0.000812631 0)
(1.01339 0.00111192 0)
(0.997901 -0.00272598 0)
(1.00745 0.000205511 0)
(1.00127 -0.00196301 0)
(1.00618 -0.0008767 0)
(1.00134 -0.0014146 0)
(1.00372 -8.38244e-05 0)
(1.00186 -0.000603218 0)
(1.00113 0.000570791 0)
(0.999663 0.00133103 0)
(0.997851 0.00577472 0)
(0.963977 -0.00223553 0)
(1.03186 0.00156698 0)
(0.974766 -0.00128904 0)
(1.02703 -0.00022437 0)
(0.980256 0.00202224 0)
(1.02643 -0.00250551 0)
(0.979153 0.00297419 0)
(1.02588 -0.00212819 0)
(0.976358 -0.00157191 0)
(1.02421 0.00345156 0)
(0.991408 -0.00376263 0)
(1.01196 0.000523666 0)
(0.995542 -3.16952e-05 0)
(1.01194 0.00223821 0)
(1.00133 0.00144412 0)
(1.00902 -0.0022398 0)
(1.0002 0.0038478 0)
(1.00883 -0.00190997 0)
(0.998956 0.00085334 0)
(1.00672 0.00100034 0)
(1.00284 -0.00258188 0)
(1.00279 0.000104857 0)
(1.00341 -0.00191305 0)
(1.00333 -0.000874643 0)
(1.0018 -0.00138377 0)
(1.00216 -2.32923e-05 0)
(1.0013 -0.00086967 0)
(1.00028 0.001369 0)
(0.999212 0.000717499 0)
(0.997845 0.00822692 0)
(0.977536 -0.0021936 0)
(1.01846 0.00146553 0)
(0.985837 -0.00124966 0)
(1.01384 -0.000276048 0)
(0.991291 0.00200724 0)
(1.01329 -0.00246218 0)
(0.990686 0.00294677 0)
(1.01306 -0.00206373 0)
(0.988615 -0.00156822 0)
(1.01258 0.00322926 0)
(0.99866 -0.00354676 0)
(1.0037 0.000433711 0)
(1.00011 -1.90623e-05 0)
(1.00605 0.00209738 0)
(1.00427 0.00150973 0)
(1.00423 -0.00217869 0)
(1.00229 0.00379736 0)
(1.00522 -0.00182496 0)
(1.00062 0.000860544 0)
(1.00426 0.000919447 0)
(1.0032 -0.00245209 0)
(1.00114 3.88283e-05 0)
(1.00277 -0.00182996 0)
(1.00191 -0.000898657 0)
(1.00076 -0.00127336 0)
(1.00088 -7.92456e-05 0)
(1.00011 -0.00065416 0)
(0.999078 0.00122687 0)
(0.998409 0.00175205 0)
(0.997348 0.00595102 0)
(0.987594 -0.00214703 0)
(1.00896 0.00137733 0)
(0.99301 -0.00119927 0)
(1.00506 -0.000336635 0)
(0.99744 0.00200171 0)
(1.00513 -0.00243166 0)
(0.996634 0.00292065 0)
(1.00571 -0.00201319 0)
(0.994565 -0.00157517 0)
(1.00623 0.003071 0)
(1.00093 -0.00336675 0)
(0.99973 0.00036899 0)
(1.00096 -2.98515e-05 0)
(1.00316 0.00196605 0)
(1.00415 0.00157355 0)
(1.00197 -0.00211783 0)
(1.00187 0.00374349 0)
(1.00342 -0.00176228 0)
(1.00021 0.000882345 0)
(1.0029 0.000821962 0)
(1.00234 -0.00228214 0)
(1.00001 -5.91317e-05 0)
(1.00158 -0.00163681 0)
(1.00061 -0.00101576 0)
(0.999403 -0.00102815 0)
(0.999521 -0.000219549 0)
(0.998644 -0.000112994 0)
(0.997765 0.000614553 0)
(0.997048 0.00323056 0)
(0.996537 0.00442658 0)
(0.993996 -0.00210141 0)
(1.00329 0.00130988 0)
(0.996901 -0.00114768 0)
(1.00029 -0.000390107 0)
(0.99997 0.00199406 0)
(1.00105 -0.00240149 0)
(0.998758 0.00288577 0)
(1.00233 -0.001964 0)
(0.996656 -0.00158845 0)
(1.00293 0.00295593 0)
(1.00106 -0.00321291 0)
(0.99787 0.000321307 0)
(1.00038 -5.22372e-05 0)
(1.00142 0.00184966 0)
(1.00301 0.00161773 0)
(1.00065 -0.00203155 0)
(1.00079 0.00363922 0)
(1.00221 -0.00163949 0)
(0.999364 0.000812664 0)
(1.0018 0.00082382 0)
(1.0014 -0.00221486 0)
(0.999005 -5.94308e-05 0)
(1.00046 -0.00165915 0)
(0.999422 -0.000913291 0)
(0.998163 -0.00106427 0)
(0.998199 -6.92586e-05 0)
(0.997298 -0.000433593 0)
(0.99648 0.00174584 0)
(0.995911 0.00204314 0)
(0.995593 0.00979442 0)
(0.997509 -0.00205893 0)
(1.00044 0.00126066 0)
(0.998668 -0.00109918 0)
(0.998208 -0.000430605 0)
(1.00052 0.00198048 0)
(0.999492 -0.00236691 0)
(0.999016 0.00284151 0)
(1.00115 -0.00191485 0)
(0.997056 -0.00159396 0)
(1.00111 0.00285842 0)
(1.00073 -0.00307168 0)
(0.996929 0.000280728 0)
(0.999535 -6.75733e-05 0)
(1.00016 0.00173344 0)
(1.00175 0.00165986 0)
(0.999788 -0.00195691 0)
(0.999722 0.00354591 0)
(1.00136 -0.00154568 0)
(0.998621 0.000767398 0)
(1.00092 0.000796187 0)
(1.00066 -0.00212238 0)
(0.998224 -7.08041e-05 0)
(0.999604 -0.0015995 0)
(0.998515 -0.0008626 0)
(0.997208 -0.000990544 0)
(0.997134 -6.99844e-05 0)
(0.996308 -0.000243845 0)
(0.995393 0.0018554 0)
(0.995328 0.00189935 0)
(0.994763 0.00945769 0)
(0.999181 -0.00201894 0)
(0.999212 0.00122266 0)
(0.999337 -0.00105402 0)
(0.997531 -0.000459354 0)
(1.00031 0.00196128 0)
(0.999126 -0.00232806 0)
(0.998695 0.00278922 0)
(1.00094 -0.00186558 0)
(0.996979 -0.00158355 0)
(1.00001 0.00276411 0)
(1.00052 -0.00293927 0)
(0.99645 0.000246773 0)
(0.998851 -6.75861e-05 0)
(0.999262 0.00161124 0)
(1.00072 0.00170461 0)
(0.999272 -0.0019007 0)
(0.998917 0.00346877 0)
(1.00083 -0.00148454 0)
(0.998142 0.000765992 0)
(1.00031 0.000723802 0)
(1.00018 -0.00197886 0)
(0.997718 -0.000115983 0)
(0.999038 -0.0013908 0)
(0.997936 -0.000970794 0)
(0.996586 -0.000633054 0)
(0.996454 -0.000355094 0)
(0.995599 0.000637575 0)
(0.994737 0.000489942 0)
(0.994743 0.00348996 0)
(0.994438 0.00221886 0)
(0.999876 -0.00197955 0)
(0.99876 0.00118895 0)
(0.999543 -0.00101056 0)
(0.997425 -0.000479683 0)
(0.999954 0.00193774 0)
(0.999179 -0.00228625 0)
(0.998366 0.0027295 0)
(1.00103 -0.00181423 0)
(0.996889 -0.00156005 0)
(0.999339 0.00267146 0)
(1.00046 -0.00282131 0)
(0.99625 0.000232913 0)
(0.99841 -6.95264e-05 0)
(0.998684 0.00151135 0)
(1 0.0017082 0)
(0.999002 -0.00179732 0)
(0.998424 0.00331106 0)
(1.00053 -0.00133135 0)
(0.997932 0.00064342 0)
(0.999929 0.00078005 0)
(0.999938 -0.0019766 0)
(0.997452 -3.03859e-05 0)
(0.998705 -0.00140778 0)
(0.997662 -0.000857084 0)
(0.996224 -0.000551831 0)
(0.996129 -0.00028989 0)
(0.995174 0.000830839 0)
(0.994466 0.000624151 0)
(0.994112 0.00368448 0)
(0.994593 0.00138038 0)
(1.00013 -0.00193871 0)
(0.998621 0.00115402 0)
(0.999589 -0.00096588 0)
(0.997489 -0.00049653 0)
(0.999664 0.00191396 0)
(0.999308 -0.00224658 0)
(0.998173 0.00266894 0)
(1.00115 -0.00176664 0)
(0.996883 -0.00151778 0)
(0.998943 0.00256744 0)
(1.00048 -0.00269956 0)
(0.996216 0.000214302 0)
(0.998175 -4.22166e-05 0)
(0.998345 0.00138524 0)
(0.999558 0.0017458 0)
(0.998876 -0.0017587 0)
(0.99819 0.00323423 0)
(1.00036 -0.00128696 0)
(0.997926 0.000628266 0)
(0.99969 0.000738003 0)
(0.999853 -0.00187016 0)
(0.997334 -5.16441e-05 0)
(0.998545 -0.00130634 0)
(0.997558 -0.000839384 0)
(0.996092 -0.000388356 0)
(0.99599 -0.000253667 0)
(0.995067 0.000832717 0)
(0.994376 0.00127593 0)
(0.994057 0.00364512 0)
(0.994986 0.00582005 0)
(1.0002 -0.0018957 0)
(0.998597 0.00111612 0)
(0.999586 -0.000919738 0)
(0.997583 -0.000510087 0)
(0.999467 0.00188708 0)
(0.999412 -0.00220287 0)
(0.99809 0.00259785 0)
(1.00121 -0.00170814 0)
(0.996944 -0.0014795 0)
(0.998722 0.00247607 0)
(1.00049 -0.00260105 0)
(0.996274 0.000224752 0)
(0.998063 -3.76536e-05 0)
(0.998183 0.00130228 0)
(0.999273 0.00172051 0)
(0.998849 -0.0016396 0)
(0.998094 0.00303848 0)
(1.00025 -0.00110488 0)
(0.998009 0.000469503 0)
(0.999551 0.000822867 0)
(0.999823 -0.00188855 0)
(0.997321 7.1187e-05 0)
(0.998456 -0.00135449 0)
(0.997573 -0.000650308 0)
(0.996054 -0.000432464 0)
(0.995991 6.91801e-05 0)
(0.995106 0.000498394 0)
(0.994494 0.00211459 0)
(0.994404 0.00331486 0)
(0.995266 0.0101016 0)
(1.0002 -0.00184976 0)
(0.998613 0.00107294 0)
(0.999568 -0.00086899 0)
(0.997677 -0.000524982 0)
(0.999336 0.00186285 0)
(0.999485 -0.00216274 0)
(0.998063 0.00252764 0)
(1.00121 -0.00165251 0)
(0.997037 -0.00143336 0)
(0.998601 0.00237897 0)
(1.00048 -0.00249672 0)
(0.99637 0.000224299 0)
(0.998021 -5.32917e-06 0)
(0.998133 0.00118499 0)
(0.999078 0.00173241 0)
(0.99887 -0.00157409 0)
(0.998067 0.00290441 0)
(1.00018 -0.0010042 0)
(0.998108 0.00039882 0)
(0.999463 0.000822919 0)
(0.999809 -0.0018182 0)
(0.997346 7.41392e-05 0)
(0.998413 -0.00117265 0)
(0.997617 -0.000711568 0)
(0.996098 -0.000149824 0)
(0.996027 1.23695e-05 0)
(0.995248 0.00111455 0)
(0.994668 0.00199256 0)
(0.9951 0.0035932 0)
(0.995757 0.00620384 0)
(1.0002 -0.00180021 0)
(0.998635 0.00102335 0)
(0.999548 -0.000813089 0)
(0.997764 -0.000541815 0)
(0.999245 0.00184107 0)
(0.999533 -0.00212487 0)
(0.998061 0.00245658 0)
(1.00118 -0.00159496 0)
(0.997144 -0.00138503 0)
(0.998532 0.00228207 0)
(1.00045 -0.00239527 0)
(0.996472 0.000232336 0)
(0.998018 1.51579e-05 0)
(0.99815 0.00109139 0)
(0.998925 0.00171493 0)
(0.998922 -0.00149022 0)
(0.99806 0.00276273 0)
(1.00011 -0.000908471 0)
(0.998206 0.000332805 0)
(0.999388 0.000842695 0)
(0.999784 -0.00174013 0)
(0.997409 5.80677e-05 0)
(0.998357 -0.000950593 0)
(0.997712 -0.000783739 0)
(0.996123 0.000213088 0)
(0.996177 -9.79779e-05 0)
(0.995354 0.00181003 0)
(0.994873 0.00187453 0)
(0.995 0.00414209 0)
(0.996329 0.00259748 0)
(1.0002 -0.00174784 0)
(0.998648 0.000968932 0)
(0.999532 -0.000753492 0)
(0.99784 -0.00055877 0)
(0.999183 0.00181896 0)
(0.999557 -0.0020827 0)
(0.998074 0.00237459 0)
(1.00111 -0.00152386 0)
(0.997263 -0.00135095 0)
(0.998477 0.00220414 0)
(1.00043 -0.00231483 0)
(0.996551 0.000253633 0)
(0.998061 3.71724e-05 0)
(0.998165 0.00099852 0)
(0.998834 0.00169574 0)
(0.998944 -0.00138761 0)
(0.998099 0.00255877 0)
(1 -0.000722522 0)
(0.99832 0.000166928 0)
(0.999289 0.000931265 0)
(0.999783 -0.00174924 0)
(0.997443 0.000160053 0)
(0.998344 -0.000966113 0)
(0.997776 -0.000642622 0)
(0.996212 0.000223958 0)
(0.996264 0.000241893 0)
(0.995567 0.00149581 0)
(0.995045 0.00270616 0)
(0.995241 0.00441038 0)
(0.997071 0.00695867 0)
(1.00021 -0.00169141 0)
(0.99866 0.000905994 0)
(0.999514 -0.00068548 0)
(0.997912 -0.00058154 0)
(0.999131 0.00180264 0)
(0.999572 -0.00204443 0)
(0.998091 0.00229641 0)
(1.00103 -0.0014568 0)
(0.997384 -0.00131541 0)
(0.998438 0.00212919 0)
(1.00039 -0.00223713 0)
(0.99664 0.000282223 0)
(0.998094 4.34492e-05 0)
(0.998218 0.000937214 0)
(0.998739 0.00164055 0)
(0.998984 -0.00125051 0)
(0.998134 0.00233389 0)
(0.999896 -0.000531866 0)
(0.998427 -5.81471e-06 0)
(0.999191 0.00103839 0)
(0.999768 -0.00180644 0)
(0.997497 0.000325553 0)
(0.998308 -0.00104852 0)
(0.997868 -0.00039682 0)
(0.996296 7.76965e-05 0)
(0.99636 0.000785631 0)
(0.995792 0.00104127 0)
(0.995342 0.00361477 0)
(0.995775 0.00456403 0)
(0.99733 0.0115235 0)
(1.00022 -0.00163215 0)
(0.998678 0.000838721 0)
(0.99949 -0.000615861 0)
(0.997983 -0.000601579 0)
(0.999083 0.0017848 0)
(0.99959 -0.00200426 0)
(0.998105 0.00221197 0)
(1.00095 -0.00138067 0)
(0.997499 -0.00128756 0)
(0.998416 0.00205629 0)
(1.00035 -0.00216019 0)
(0.996734 0.000312636 0)
(0.998123 5.15861e-05 0)
(0.998284 0.000852376 0)
(0.99865 0.0016224 0)
(0.999025 -0.00117823 0)
(0.998165 0.00218537 0)
(0.999803 -0.000420149 0)
(0.998506 -8.60339e-05 0)
(0.999113 0.00102983 0)
(0.999743 -0.00166277 0)
(0.997552 0.000235673 0)
(0.998282 -0.00075091 0)
(0.997953 -0.000528607 0)
(0.996409 0.00053099 0)
(0.996442 0.000636348 0)
(0.996048 0.00179455 0)
(0.995667 0.00329172 0)
(0.996665 0.00453288 0)
(0.997784 0.00668851 0)
(1.00022 -0.0015663 0)
(0.998694 0.000758434 0)
(0.999466 -0.00053081 0)
(0.998049 -0.000639095 0)
(0.999042 0.00178162 0)
(0.999612 -0.00197138 0)
(0.998125 0.00212974 0)
(1.00087 -0.00130317 0)
(0.997616 -0.00126294 0)
(0.998403 0.00200558 0)
(1.0003 -0.00210382 0)
(0.996839 0.000337572 0)
(0.998131 8.53941e-05 0)
(0.998378 0.000757862 0)
(0.998543 0.00159419 0)
(0.999084 -0.00107006 0)
(0.998188 0.00200522 0)
(0.999709 -0.000288677 0)
(0.998581 -0.000198983 0)
(0.999049 0.00105101 0)
(0.999689 -0.00151514 0)
(0.997651 0.000113779 0)
(0.998215 -0.000391546 0)
(0.998101 -0.000684858 0)
(0.996469 0.00102187 0)
(0.996624 0.00055095 0)
(0.996231 0.00247464 0)
(0.995874 0.00316194 0)
(0.996394 0.00461363 0)
(0.998371 0.0024707 0)
(1.00023 -0.00150706 0)
(0.998701 0.000687708 0)
(0.999456 -0.000461488 0)
(0.998093 -0.000644733 0)
(0.999028 0.00174592 0)
(0.999618 -0.00190292 0)
(0.998171 0.00200838 0)
(1.00077 -0.00118586 0)
(0.997754 -0.00128449 0)
(0.998366 0.00197796 0)
(1.00028 -0.00205979 0)
(0.996895 0.000419458 0)
(0.998193 1.14244e-05 0)
(0.998408 0.000760446 0)
(0.998503 0.00146421 0)
(0.999081 -0.000899301 0)
(0.99825 0.00173843 0)
(0.999589 -3.17687e-05 0)
(0.998676 -0.000394558 0)
(0.998964 0.00113946 0)
(0.999667 -0.00154888 0)
(0.997712 0.000259635 0)
(0.998209 -0.000449795 0)
(0.998189 -0.000440799 0)
(0.996631 0.000821388 0)
(0.99671 0.00112751 0)
(0.996537 0.00211524 0)
(0.996082 0.00408748 0)
(0.996578 0.00545269 0)
(0.99922 0.00741472 0)
(1.00024 -0.00141944 0)
(0.99872 0.000571505 0)
(0.999438 -0.00034093 0)
(0.998145 -0.000718487 0)
(0.999011 0.00178603 0)
(0.999633 -0.00192388 0)
(0.99822 0.00198374 0)
(1.00067 -0.00116165 0)
(0.997894 -0.00121453 0)
(0.998342 0.00188777 0)
(1.00025 -0.00196111 0)
(0.996979 0.000385214 0)
(0.998215 0.000133008 0)
(0.99848 0.000584239 0)
(0.998427 0.00156823 0)
(0.999099 -0.000926216 0)
(0.998317 0.001649 0)
(0.999457 7.44632e-06 0)
(0.998774 -0.000505381 0)
(0.998882 0.00132974 0)
(0.999644 -0.00170553 0)
(0.997787 0.000459849 0)
(0.998177 -0.000579415 0)
(0.998294 -1.38686e-05 0)
(0.99679 0.000416962 0)
(0.996843 0.00192756 0)
(0.996842 0.00145723 0)
(0.996514 0.00514857 0)
(0.997132 0.00599029 0)
(0.999099 0.0127104 0)
(1.00022 -0.00137363 0)
(0.998763 0.000516659 0)
(0.999404 -0.000287857 0)
(0.998219 -0.000694124 0)
(0.998981 0.00170026 0)
(0.999667 -0.00176966 0)
(0.99825 0.00175274 0)
(1.0006 -0.0009257 0)
(0.99801 -0.0013492 0)
(0.998338 0.00200334 0)
(1.0002 -0.0020773 0)
(0.997088 0.000603706 0)
(0.998225 -5.97139e-05 0)
(0.998553 0.000760516 0)
(0.998363 0.00123656 0)
(0.999108 -0.000497876 0)
(0.99836 0.00117352 0)
(0.999358 0.000410464 0)
(0.998867 -0.000809241 0)
(0.998818 0.00142251 0)
(0.99959 -0.001502 0)
(0.997891 0.000313002 0)
(0.99817 -0.000153761 0)
(0.998383 -0.000269438 0)
(0.996997 0.00102083 0)
(0.99693 0.00182399 0)
(0.997196 0.00227083 0)
(0.997021 0.00464027 0)
(0.998213 0.00545964 0)
(0.999365 0.00674481 0)
(1.00021 -0.00126009 0)
(0.998813 0.00035849 0)
(0.999373 -0.000131148 0)
(0.998304 -0.000803156 0)
(0.99895 0.00178782 0)
(0.999704 -0.00185469 0)
(0.998275 0.00180578 0)
(1.00052 -0.000984555 0)
(0.998122 -0.00121086 0)
(0.998338 0.00178916 0)
(1.00015 -0.00178107 0)
(0.997215 0.000383921 0)
(0.998208 0.000189391 0)
(0.998666 0.000306518 0)
(0.99827 0.00163066 0)
(0.999151 -0.000998323 0)
(0.998398 0.00166534 0)
(0.999274 -4.94692e-05 0)
(0.998902 -0.000128511 0)
(0.998833 0.000532031 0)
(0.9995 -0.000427188 0)
(0.998048 -0.000632045 0)
(0.998085 0.000974655 0)
(0.998578 -0.00118616 0)
(0.997158 0.00215983 0)
(0.997157 0.000895467 0)
(0.997408 0.00370365 0)
(0.997237 0.00334013 0)
(0.997579 0.00623751 0)
(0.999907 0.00208931 0)
(1.00021 -0.0012171 0)
(0.99884 0.000304358 0)
(0.999373 -8.54095e-05 0)
(0.998361 -0.000761953 0)
(0.998953 0.00168223 0)
(0.999705 -0.00167577 0)
(0.998335 0.00154833 0)
(1.00041 -0.000708788 0)
(0.998265 -0.00137783 0)
(0.99831 0.00196532 0)
(1.00015 -0.00198949 0)
(0.997282 0.000676439 0)
(0.998263 -3.32918e-05 0)
(0.998716 0.000645223 0)
(0.998249 0.00109627 0)
(0.999134 -0.000229547 0)
(0.998493 0.000679806 0)
(0.999156 0.000840908 0)
(0.998985 -0.00122752 0)
(0.998793 0.00176891 0)
(0.999468 -0.00168643 0)
(0.998147 0.00067545 0)
(0.998123 -0.000370174 0)
(0.998642 0.000792963 0)
(0.997419 9.8175e-05 0)
(0.997278 0.00325166 0)
(0.997745 0.00123408 0)
(0.997628 0.00595619 0)
(0.997972 0.0059042 0)
(1.0001 0.0134187 0)
(1.00019 -0.00110094 0)
(0.998893 0.00014356 0)
(0.999355 7.21769e-05 0)
(0.998443 -0.000852582 0)
(0.998937 0.00172659 0)
(0.999727 -0.00167645 0)
(0.998377 0.0014927 0)
(1.00032 -0.000667691 0)
(0.998389 -0.00132871 0)
(0.998307 0.00189588 0)
(1.00011 -0.00186465 0)
(0.997422 0.000580657 0)
(0.998263 0.00015732 0)
(0.998797 0.000396243 0)
(0.998224 0.00128286 0)
(0.999111 -0.000403652 0)
(0.998581 0.000831846 0)
(0.999028 0.000615682 0)
(0.999106 -0.000798972 0)
(0.998765 0.0011323 0)
(0.999412 -0.000832699 0)
(0.998277 -0.000135934 0)
(0.998178 0.000546704 0)
(0.998681 6.56021e-06 0)
(0.997723 0.00106811 0)
(0.997396 0.00253222 0)
(0.998094 0.00262707 0)
(0.998323 0.00447931 0)
(0.999477 0.00568327 0)
(1.00023 0.00697646 0)
(1.00019 -0.00105409 0)
(0.998943 8.21497e-05 0)
(0.999344 0.000108399 0)
(0.998527 -0.000816026 0)
(0.998919 0.00166798 0)
(0.99976 -0.00157611 0)
(0.998413 0.00134851 0)
(1.00025 -0.000519293 0)
(0.998499 -0.0013655 0)
(0.998318 0.00178027 0)
(1.00006 -0.00164027 0)
(0.997554 0.000464524 0)
(0.998259 0.000244452 0)
(0.998916 0.000124758 0)
(0.998154 0.00145135 0)
(0.999159 -0.000550848 0)
(0.998623 0.00105436 0)
(0.999006 0.000232895 0)
(0.999073 -4.66601e-05 0)
(0.998853 9.88687e-05 0)
(0.999281 0.000445424 0)
(0.998472 -0.00120607 0)
(0.998157 0.00187786 0)
(0.998841 -0.00108935 0)
(0.997955 0.00258441 0)
(0.997692 0.00113817 0)
(0.998214 0.00461119 0)
(0.998413 0.00288966 0)
(0.998594 0.00629727 0)
(1.00074 0.000556222 0)
(1.00024 -0.000929431 0)
(0.998935 -8.53204e-05 0)
(0.999394 0.000276675 0)
(0.998543 -0.000909499 0)
(0.998975 0.00168618 0)
(0.999711 -0.00151519 0)
(0.998538 0.00123446 0)
(1.00009 -0.000403331 0)
(0.998677 -0.00136316 0)
(0.99826 0.00184357 0)
(1.00009 -0.00169178 0)
(0.997613 0.000500889 0)
(0.998324 0.000307217 0)
(0.998952 0.000181766 0)
(0.998214 0.0010485 0)
(0.99908 0.000101195 0)
(0.998756 7.75349e-06 0)
(0.99889 0.00153763 0)
(0.999162 -0.0016066 0)
(0.998871 0.00173311 0)
(0.99926 -0.00128674 0)
(0.998589 0.000735385 0)
(0.998262 -0.000339764 0)
(0.998886 0.00143862 0)
(0.998255 -7.19207e-05 0)
(0.997914 0.00364109 0)
(0.998559 0.00191865 0)
(0.998819 0.0064386 0)
(0.998909 0.00714543 0)
(1.00086 0.0133756 0)
(1.00025 -0.000877498 0)
(0.998976 -0.000148998 0)
(0.999405 0.000258095 0)
(0.998601 -0.000760791 0)
(0.998995 0.00150498 0)
(0.999707 -0.00128184 0)
(0.998624 0.0009593 0)
(0.999981 -0.000164087 0)
(0.99884 -0.00150493 0)
(0.998231 0.00186843 0)
(1.00007 -0.00164926 0)
(0.997738 0.000527672 0)
(0.998358 0.000343936 0)
(0.998988 0.000136694 0)
(0.99826 0.00100378 0)
(0.999001 0.000195896 0)
(0.998962 -0.000197036 0)
(0.998725 0.00165586 0)
(0.999257 -0.00158749 0)
(0.998871 0.00172668 0)
(0.999252 -0.00120957 0)
(0.998629 0.000972976 0)
(0.998439 -0.000576213 0)
(0.99888 0.00205064 0)
(0.998599 -0.000449418 0)
(0.998145 0.00382175 0)
(0.99906 0.00139352 0)
(0.999805 0.00606936 0)
(1.00064 0.00651321 0)
(1.00023 0.0133175 0)
(1.0002 -0.000789609 0)
(0.99908 -0.000282854 0)
(0.99937 0.000404477 0)
(0.998725 -0.000929845 0)
(0.998958 0.001683 0)
(0.999757 -0.00138293 0)
(0.998661 0.00104337 0)
(0.999934 -0.000260762 0)
(0.998924 -0.00120303 0)
(0.9983 0.00141319 0)
(1 -0.00103539 0)
(0.99792 -8.23466e-05 0)
(0.998312 0.00106205 0)
(0.999132 -0.000787617 0)
(0.998244 0.0020394 0)
(0.998998 -0.000867212 0)
(0.999012 0.00108651 0)
(0.998731 -7.47723e-05 0)
(0.999242 0.000478328 0)
(0.99899 -0.000703893 0)
(0.999191 0.00134244 0)
(0.998779 -0.00149293 0)
(0.99856 0.00191903 0)
(0.998968 -0.000316959 0)
(0.998756 0.00230455 0)
(0.998403 0.000954165 0)
(0.99924 0.00366662 0)
(1.00026 0.00098591 0)
(1.00114 0.00307106 0)
(1.0007 -0.000135733 0)
(1.00017 -0.000673304 0)
(0.999178 -0.000395664 0)
(0.999345 0.000386684 0)
(0.998838 -0.000690713 0)
(0.998946 0.00129918 0)
(0.999787 -0.000929032 0)
(0.998718 0.00058809 0)
(0.999878 0.000122573 0)
(0.999037 -0.00157025 0)
(0.998339 0.00180979 0)
(0.999931 -0.00134703 0)
(0.998115 0.000237401 0)
(0.998277 0.000753277 0)
(0.999258 -0.000407982 0)
(0.998238 0.00150456 0)
(0.99899 -0.000317854 0)
(0.999089 0.000468987 0)
(0.998738 0.000481294 0)
(0.999167 9.11185e-05 0)
(0.999154 -0.000343273 0)
(0.999113 0.00105781 0)
(0.998893 -0.000944714 0)
(0.998719 0.00142312 0)
(0.999107 0.000333633 0)
(0.998938 0.00200586 0)
(0.998625 0.00143818 0)
(0.999079 0.00311613 0)
(0.999739 0.000927898 0)
(1.00028 0.00148766 0)
(1.00251 8.19457e-05 0)
(1.00017 -0.000697543 0)
(0.999223 -0.000382455 0)
(0.999397 0.000352866 0)
(0.99888 -0.000699168 0)
(0.998983 0.00142735 0)
(0.999776 -0.000990086 0)
(0.998808 0.000652366 0)
(0.999776 2.31438e-05 0)
(0.999187 -0.00115038 0)
(0.998365 0.0011855 0)
(0.999904 -0.000744055 0)
(0.998258 -0.000203736 0)
(0.998295 0.00109586 0)
(0.999318 -0.000570895 0)
(0.998311 0.00137017 0)
(0.998908 -2.989e-05 0)
(0.999202 0.000139489 0)
(0.998726 0.000684998 0)
(0.99916 -8.88023e-05 0)
(0.999246 -4.3457e-05 0)
(0.999122 0.000595364 0)
(0.998952 -0.000176009 0)
(0.998912 0.000701757 0)
(0.999203 0.00101963 0)
(0.999107 0.00134199 0)
(0.998799 0.00193348 0)
(0.999153 0.00287415 0)
(0.999886 0.00341601 0)
(1.00101 0.00460295 0)
(1.00473 0.00582608 0)
(1.00016 -0.000442147 0)
(0.9993 -0.000649842 0)
(0.999406 0.000510294 0)
(0.99898 -0.000727652 0)
(0.999002 0.00130419 0)
(0.999774 -0.000809436 0)
(0.998895 0.000497208 0)
(0.999737 0.000185951 0)
(0.999261 -0.00132497 0)
(0.998434 0.0013733 0)
(0.999855 -0.000862386 0)
(0.998423 2.15471e-05 0)
(0.998314 0.000614601 0)
(0.999364 7.61893e-05 0)
(0.998406 0.000291808 0)
(0.998848 0.00113119 0)
(0.999301 -0.00110309 0)
(0.998741 0.0017882 0)
(0.99911 -0.00102781 0)
(0.999354 0.000919667 0)
(0.999155 -0.000396002 0)
(0.998993 0.00117482 0)
(0.999087 -0.000382111 0)
(0.999349 0.00215279 0)
(0.999276 0.000441871 0)
(0.999151 0.00304097 0)
(0.999618 0.00217788 0)
(1.00039 0.00604434 0)
(1.00116 0.00712392 0)
(1.00382 0.0122235 0)
(1.00013 -0.000662992 0)
(0.999375 -0.000358822 0)
(0.999454 0.000134875 0)
(0.999024 -0.000264695 0)
(0.999042 0.000887413 0)
(0.999777 -0.000319259 0)
(0.998976 3.05014e-05 0)
(0.99965 0.000534922 0)
(0.999401 -0.00143998 0)
(0.998515 0.00133899 0)
(0.999796 -0.000690741 0)
(0.998551 -0.000246601 0)
(0.99837 0.000994433 0)
(0.999352 -0.000223294 0)
(0.998572 0.00056816 0)
(0.998731 0.000895197 0)
(0.999426 -0.000655959 0)
(0.99878 0.00100177 0)
(0.999078 -0.000103192 0)
(0.999447 0.000112064 0)
(0.999266 0.000283857 0)
(0.999033 0.000668076 0)
(0.999251 0.000428808 0)
(0.999493 0.00152693 0)
(0.999465 0.00153367 0)
(0.999384 0.00244874 0)
(1.00022 0.00271913 0)
(1.00161 0.00339248 0)
(1.00327 0.00361382 0)
(1.00385 0.00486947 0)
(1.00009 -0.00021037 0)
(0.999497 -0.000865459 0)
(0.999424 0.000580624 0)
(0.99919 -0.000823512 0)
(0.999013 0.00145002 0)
(0.999818 -0.000816565 0)
(0.999017 0.000613821 0)
(0.999687 -1.54172e-05 0)
(0.999405 -0.000648571 0)
(0.998644 0.000334228 0)
(0.999686 0.000421764 0)
(0.9988 -0.00127556 0)
(0.99835 0.00213225 0)
(0.999435 -0.00136422 0)
(0.998635 0.0017814 0)
(0.998739 -0.000492414 0)
(0.999378 0.000903624 0)
(0.998949 -0.000666411 0)
(0.99898 0.00151614 0)
(0.999553 -0.00136696 0)
(0.999347 0.00164933 0)
(0.99914 -0.000570095 0)
(0.999389 0.00190821 0)
(0.999765 0.000301972 0)
(0.999628 0.00302221 0)
(0.999624 0.00142206 0)
(0.999995 0.00362451 0)
(1.00075 0.000923233 0)
(1.00172 0.00182226 0)
(1.00506 -0.000749678 0)
(1.00011 -0.000628858 0)
(0.999523 -0.000225562 0)
(0.999515 -0.000150209 0)
(0.999207 0.000165681 0)
(0.999099 0.000298097 0)
(0.999785 0.000373108 0)
(0.999135 -0.000633625 0)
(0.999576 0.00120375 0)
(0.999537 -0.00194958 0)
(0.998721 0.00168584 0)
(0.999662 -0.00090127 0)
(0.99891 0.000200935 0)
(0.998416 0.000442279 0)
(0.999407 0.000461714 0)
(0.998775 -0.000158915 0)
(0.998671 0.0012712 0)
(0.999456 -0.000755345 0)
(0.999024 0.000983086 0)
(0.998982 -0.000169347 0)
(0.999599 0.000515692 0)
(0.999522 -0.000208759 0)
(0.999211 0.00129435 0)
(0.999567 0.000395397 0)
(0.999933 0.00191249 0)
(0.999879 0.00161587 0)
(0.999699 0.00327373 0)
(1.00011 0.00253962 0)
(1.00112 0.00414754 0)
(1.00282 0.00432338 0)
(1.00715 0.00759395 0)
(1.00011 -0.000125916 0)
(0.999571 -0.000871031 0)
(0.999556 0.000461572 0)
(0.999281 -0.000832661 0)
(0.99913 0.00151332 0)
(0.99976 -0.00068548 0)
(0.999229 0.000619393 0)
(0.999556 -0.00013346 0)
(0.999599 -0.000333642 0)
(0.998809 7.42773e-05 0)
(0.999587 0.000567039 0)
(0.999062 -0.00109384 0)
(0.998499 0.00160676 0)
(0.999381 -0.000586614 0)
(0.998895 0.00084328 0)
(0.998667 0.000139321 0)
(0.999438 0.000571435 0)
(0.999129 -0.00042835 0)
(0.998985 0.00113741 0)
(0.999598 -0.000526685 0)
(0.999666 0.000824311 0)
(0.999356 0.000266018 0)
(0.99969 0.00156738 0)
(1.0002 0.00083472 0)
(1.00019 0.00281125 0)
(1 0.00269271 0)
(1.00044 0.00475215 0)
(1.0015 0.00488481 0)
(1.00325 0.00648024 0)
(1.00763 0.0049362 0)
(1.0001 -0.000424455 0)
(0.999646 -0.000255404 0)
(0.999598 -0.000220198 0)
(0.999394 0.000177044 0)
(0.999192 0.00014673 0)
(0.999759 0.000634995 0)
(0.999291 -0.000862342 0)
(0.999523 0.00149475 0)
(0.99966 -0.00200592 0)
(0.998921 0.00167602 0)
(0.99956 -0.00107255 0)
(0.999168 0.000764498 0)
(0.998569 -0.000419544 0)
(0.999353 0.00152282 0)
(0.998996 -0.00119963 0)
(0.998701 0.00205564 0)
(0.999415 -0.00117632 0)
(0.99925 0.00124982 0)
(0.999034 -0.000491715 0)
(0.999619 0.00117622 0)
(0.999823 -0.000684036 0)
(0.999518 0.00180647 0)
(0.999819 0.000259217 0)
(1.00044 0.00239353 0)
(1.00059 0.00126818 0)
(1.00052 0.00414055 0)
(1.00103 0.0037797 0)
(1.00192 0.00788995 0)
(1.00287 0.00945117 0)
(1.0061 0.0136274 0)
(1.00002 -0.000226225 0)
(0.999715 -0.000553657 0)
(0.999601 0.000133956 0)
(0.999435 -0.000519101 0)
(0.999194 0.00100783 0)
(0.999745 -0.000163172 0)
(0.999381 0.000238942 0)
(0.9995 0.000225273 0)
(0.999676 -0.000450269 0)
(0.999046 0.000146074 0)
(0.999477 0.00044213 0)
(0.999265 -0.000702165 0)
(0.998685 0.000992585 0)
(0.999312 0.000165116 0)
(0.99908 0.000219636 0)
(0.998745 0.000664267 0)
(0.999334 0.000308899 0)
(0.999373 -3.43026e-05 0)
(0.99904 0.000645986 0)
(0.999631 0.000232844 0)
(0.999935 0.000342323 0)
(0.999719 0.000805053 0)
(0.999973 0.00141827 0)
(1.00062 0.0016126 0)
(1.00093 0.00249976 0)
(1.00103 0.00305408 0)
(1.00207 0.00364685 0)
(1.00398 0.00361223 0)
(1.00585 0.00390414 0)
(1.00539 0.00340541 0)
(0.999935 -0.000128951 0)
(0.999888 -0.000502027 0)
(0.999539 9.35055e-06 0)
(0.999694 -0.00034925 0)
(0.999183 0.000686441 0)
(0.999855 0.000167066 0)
(0.999301 -5.28628e-05 0)
(0.999605 0.000442483 0)
(0.99961 -0.000581283 0)
(0.999255 0.000249005 0)
(0.999364 0.000247837 0)
(0.999458 -0.000344851 0)
(0.998703 0.000719683 0)
(0.999368 0.000303863 0)
(0.999108 0.000172598 0)
(0.998873 0.000529634 0)
(0.99926 0.000367707 0)
(0.999493 -8.63976e-05 0)
(0.999112 0.000651993 0)
(0.99969 0.000344102 0)
(1.00001 0.000437433 0)
(1.00001 0.000744002 0)
(1.00011 0.00136561 0)
(1.00098 0.00135748 0)
(1.00115 0.0019332 0)
(1.00109 0.00249067 0)
(1.00125 0.00359457 0)
(1.00206 0.00402516 0)
(1.00262 0.00509026 0)
(1.00566 0.00576948 0)
(1 -0.000398869 0)
(0.999778 -7.90216e-05 0)
(0.999684 -0.000326736 0)
(0.999566 7.90764e-05 0)
(0.99932 9.18937e-05 0)
(0.9997 0.000686763 0)
(0.999483 -0.000513048 0)
(0.999475 0.000997688 0)
(0.999708 -0.00102336 0)
(0.999262 0.000751622 0)
(0.999422 -0.000273965 0)
(0.999442 0.000346062 0)
(0.99888 1.25162e-05 0)
(0.99927 0.00103496 0)
(0.999215 -0.000382467 0)
(0.998854 0.00105253 0)
(0.999253 -0.000110855 0)
(0.99953 0.000534977 0)
(0.999219 0.000102092 0)
(0.999641 0.000992517 0)
(1.00013 8.65499e-05 0)
(1.0001 0.00118821 0)
(1.00024 0.000893634 0)
(1.0009 0.0016406 0)