/*--------------------------------*- C++ -*----------------------------------*\
| =========                 |                                                 |
| \\      /  F ield         | OpenFOAM: The Open Source CFD Toolbox           |
|  \\    /   O peration     | Version:  v2006                                 |
|   \\  /    A nd           | Website:  www.openfoam.com                      |
|    \\/     M anipulation  |                                                 |
\*---------------------------------------------------------------------------*/
FoamFile
{
    version     2.0;
    format      ascii;
    class       volScalarField;
    location    "1.2";
    object      p;
}
// * * * * * * * * * * * * * * * * * * * * * * * * * * * * * * * * * * * * * //

dimensions      [0 2 -2 0 0 0 0];


internalField   nonuniform List<scalar> 
26400
(
-1.67182e-08
0.00221806
0.00208143
0.00229956
0.00174026
0.00204346
0.00166648
0.00199161
0.00170774
0.00200543
0.00174924
0.00205628
0.00183127
0.00212854
0.00194343
0.00224403
0.00211085
0.00244048
0.00237432
0.0027631
0.0027927
0.00328392
0.00345746
0.00411179
0.00450821
0.00543989
0.00623919
0.00780503
0.00954245
0.0121729
2.97941e-07
0.00221811
0.00208185
0.00229962
0.00174093
0.00204344
0.00166729
0.00199156
0.00170865
0.00200533
0.00175027
0.00205604
0.00183249
0.00212812
0.00194494
0.00224336
0.00211272
0.00243931
0.00237668
0.00276088
0.00279577
0.00327928
0.00346191
0.00410059
0.00451645
0.00540532
0.00625838
0.00766097
0.00953128
0.0114855
1.26076e-06
0.00221836
0.00208272
0.00229983
0.0017422
0.00204335
0.00166882
0.00199136
0.00171041
0.00200498
0.00175229
0.00205543
0.00183489
0.0021272
0.00194781
0.002242
0.00211612
0.00243717
0.00238068
0.00275743
0.00280039
0.00327349
0.00346715
0.00409053
0.00452282
0.00538698
0.00625441
0.00758252
0.00941511
0.0108262
3.36189e-06
0.00221917
0.00208394
0.0023004
0.00174384
0.00204341
0.00167075
0.00199123
0.00171265
0.00200463
0.00175486
0.00205474
0.00183787
0.00212608
0.00195122
0.00224028
0.00212005
0.00243442
0.00238524
0.00275295
0.00280564
0.00326611
0.00347286
0.00407755
0.00452832
0.00535585
0.00625456
0.007459
0.00918948
0.0102732
7.09124e-06
0.0022204
0.00208551
0.00230118
0.0017458
0.00204349
0.00167295
0.00199103
0.00171522
0.00200412
0.00175777
0.00205376
0.00184117
0.00212451
0.00195494
0.00223791
0.00212426
0.00243076
0.00239008
0.0027472
0.00281106
0.0032571
0.00347833
0.00406213
0.00453114
0.00532869
0.00622247
0.00736812
0.00884111
0.00982511
1.26215e-05
0.00222173
0.0020874
0.00230187
0.00174802
0.00204332
0.00167532
0.0019905
0.00171798
0.00200319
0.00176091
0.00205225
0.00184471
0.00212226
0.00195892
0.00223468
0.00212879
0.00242604
0.00239525
0.00274022
0.0028166
0.00324693
0.00348333
0.00404895
0.00452998
0.00531285
0.00615522
0.00729182
0.00845873
0.00927384
1.97911e-05
0.00222286
0.00208956
0.00230225
0.00175042
0.00204269
0.00167778
0.00198947
0.0017209
0.00200171
0.00176429
0.00205012
0.00184858
0.00211927
0.00196334
0.00223051
0.00213388
0.00242015
0.00240106
0.00273186
0.00282264
0.00323492
0.00348855
0.00403182
0.0045285
0.00527294
0.00612891
0.00712063
0.00829909
0.00886134
2.8264e-05
0.00222369
0.00209197
0.00230224
0.00175302
0.00204155
0.00168037
0.00198791
0.00172404
0.00199968
0.00176801
0.0020474
0.0018529
0.00211557
0.00196833
0.00222546
0.00213965
0.00241318
0.00240754
0.00272228
0.00282899
0.00322102
0.0034929
0.00401389
0.00452438
0.00523339
0.00607509
0.00695689
0.00797743
0.00841764
3.77005e-05
0.00222423
0.00209463
0.00230188
0.00175588
0.00203992
0.00168318
0.00198585
0.00172753
0.00199712
0.00177219
0.00204409
0.0018578
0.00211117
0.00197398
0.00221955
0.00214607
0.00240529
0.00241441
0.00271215
0.00283531
0.00320836
0.00349448
0.00399883
0.00450495
0.00523255
0.00595277
0.00685697
0.00733566
0.00792798
4.78562e-05
0.00222455
0.00209759
0.00230123
0.00175911
0.00203785
0.00168632
0.00198329
0.00173148
0.00199401
0.00177698
0.00204013
0.00186342
0.00210595
0.00198045
0.00221263
0.00215328
0.00239622
0.00242185
0.00269993
0.0028422
0.00319301
0.00349647
0.00397805
0.00449489
0.00518706
0.00588131
0.00672642
0.00701704
0.00738266
5.86031e-05
0.00222469
0.00210089
0.00230036
0.00176279
0.00203536
0.00168987
0.00198021
0.00173599
0.0019903
0.00178243
0.00203546
0.0018698
0.00209987
0.0019877
0.00220475
0.00216112
0.0023862
0.00242954
0.00268721
0.0028484
0.00317706
0.0034973
0.00395392
0.00448297
0.00511669
0.00584975
0.00656091
0.00710082
0.00676142
6.99088e-05
0.00222466
0.00210455
0.00229929
0.00176702
0.00203241
0.00169392
0.00197655
0.00174113
0.00198591
0.00178862
0.00202999
0.00187699
0.00209287
0.00199572
0.00219589
0.00216945
0.00237527
0.00243735
0.00267422
0.00285316
0.00316119
0.00349496
0.0039297
0.00446235
0.00506109
0.00578153
0.00638735
0.00694198
0.00602125
8.18041e-05
0.00222442
0.00210861
0.002298
0.00177189
0.00202898
0.00169852
0.00197224
0.00174696
0.00198077
0.00179561
0.00202369
0.00188499
0.00208498
0.0020044
0.00218619
0.00217801
0.00236309
0.00244475
0.00266122
0.00285577
0.00314589
0.00348847
0.00390857
0.00442985
0.00501659
0.00567139
0.00620511
0.00648172
0.00560662
9.43634e-05
0.00222387
0.00211311
0.00229648
0.00177748
0.00202501
0.00170375
0.00196721
0.00175354
0.00197484
0.00180339
0.00201655
0.00189371
0.00207631
0.00201354
0.00217599
0.00218647
0.00235195
0.00245071
0.00264911
0.0028553
0.00313169
0.00347335
0.00389202
0.00438596
0.00496697
0.0055497
0.0060156
0.00579619
0.00502031
0.000107695
0.00222289
0.00211806
0.00229466
0.0017839
0.00202043
0.00170966
0.00196136
0.00176092
0.00196803
0.00181201
0.00200854
0.00190316
0.00206685
0.00202297
0.00216534
0.00219482
0.00234079
0.00245526
0.0026373
0.00285323
0.00311636
0.00346133
0.0038571
0.00434922
0.00487973
0.0054348
0.00584559
0.00587368
0.00461738
0.000121934
0.0022213
0.00212351
0.0022925
0.00179126
0.00201518
0.00171632
0.00195462
0.00176913
0.00196032
0.00182142
0.00199968
0.00191317
0.00205685
0.00203228
0.00215421
0.00220232
0.00233031
0.00245772
0.00262662
0.00284824
0.00310108
0.00344764
0.00381567
0.00430673
0.00478057
0.00530511
0.00563294
0.00570335
0.00388175
0.00013724
0.00221889
0.00212948
0.00228995
0.00179965
0.00200922
0.00172374
0.00194697
0.00177812
0.0019518
0.00183148
0.00199022
0.00192329
0.00204707
0.00204089
0.00214491
0.00220741
0.00232211
0.00245616
0.00261903
0.00283657
0.00308998
0.00341466
0.00379236
0.00423549
0.00469934
0.00512865
0.00536654
0.00518288
0.00363667
0.000153818
0.00221542
0.00213601
0.00228696
0.00180917
0.00200249
0.00173195
0.00193836
0.00178782
0.00194248
0.00184207
0.00198044
0.00193312
0.00203778
0.00204853
0.00213717
0.00221007
0.00231581
0.00245173
0.00261259
0.0028224
0.00307948
0.00337849
0.00375957
0.0041552
0.00460768
0.00494622
0.00505757
0.00432184
0.0031317
0.00017189
0.00221059
0.00214311
0.00228347
0.00181992
0.00199495
0.00174095
0.00192878
0.00179819
0.00193234
0.00185301
0.00197043
0.00194241
0.00202812
0.00205477
0.00213003
0.00221113
0.00230905
0.00244751
0.00260189
0.00281197
0.00305376
0.00335582
0.00369929
0.00408311
0.00446577
0.00478241
0.00490052
0.0045659
0.00278636
0.000191647
0.00220414
0.00215075
0.0022795
0.00183192
0.00198672
0.00175053
0.00191852
0.00180884
0.00192222
0.00186354
0.00196293
0.00195092
0.00202173
0.00205878
0.00212492
0.00220984
0.00230348
0.002441
0.00259091
0.00280164
0.00302648
0.00333044
0.00363007
0.00399906
0.0043083
0.00459531
0.00466255
0.00443345
0.00195423
0.000213553
0.0021956
0.00215901
0.0022749
0.00184534
0.00197761
0.00176087
0.00190721
0.00181987
0.00191122
0.0018736
0.00195122
0.00195907
0.00201455
0.0020615
0.00212038
0.00220641
0.00229892
0.00242991
0.00258066
0.00277857
0.00300946
0.00328202
0.00357766
0.00389088
0.00416584
0.00433835
0.00429817
0.00386264
0.0020425
0.000237598
0.00218474
0.00216772
0.0022699
0.00185997
0.00196814
0.00177134
0.00189605
0.00183025
0.00190286
0.0018819
0.00194749
0.00196221
0.00201408
0.00205758
0.00212366
0.00219558
0.00230407
0.00241045
0.00258364
0.00273762
0.0029949
0.00320641
0.00352253
0.00376506
0.00402881
0.00406746
0.00384358
0.00279103
0.00168832
0.000264492
0.00217097
0.00217692
0.00226431
0.00187605
0.00195814
0.00178197
0.00188432
0.00184033
0.00189304
0.00189035
0.00194087
0.00196657
0.00200869
0.00206035
0.00211501
0.00219895
0.00228739
0.00241489
0.00255133
0.00273817
0.00293223
0.00318115
0.00341449
0.00365359
0.00379723
0.00385877
0.00373475
0.00339105
0.00142119
0.000294455
0.00215396
0.00218649
0.0022582
0.00189344
0.00194784
0.00179259
0.00187172
0.001849
0.00188409
0.00189665
0.0019357
0.00196946
0.00200375
0.00206127
0.00210777
0.00219642
0.00227437
0.00240601
0.00253389
0.00271572
0.00289605
0.00312944
0.00332559
0.00352223
0.00360517
0.00359111
0.00339299
0.0030301
0.0011544
0.000327564
0.00213345
0.00219603
0.00225207
0.00191159
0.00193872
0.00180237
0.00186394
0.00185357
0.00188306
0.00189604
0.00194103
0.00196327
0.00201282
0.00204793
0.00212017
0.00217404
0.00228965
0.0023605
0.00253912
0.00264837
0.00288211
0.00301305
0.00325906
0.0033622
0.00346994
0.00326612
0.00279086
0.00156403
0.0008691
0.000364522
0.00210892
0.0022055
0.00224568
0.00193062
0.00192968
0.00181202
0.00185383
0.00185853
0.0018779
0.00189894
0.00193601
0.00196802
0.0020028
0.00205999
0.00210016
0.00219169
0.00225768
0.00238283
0.00248244
0.00264679
0.0027955
0.00298288
0.00311776
0.00321854
0.00320343
0.00309191
0.00285724
0.00247127
0.000610942
0.000406014
0.00207989
0.00221474
0.00223899
0.00195035
0.00191977
0.00182035
0.00184572
0.00186146
0.00187625
0.00189898
0.00193546
0.00196649
0.0019952
0.00205699
0.00208923
0.00218673
0.00223309
0.00237581
0.0024465
0.00263783
0.00272765
0.00293105
0.00298478
0.00306536
0.00294137
0.0027712
0.00248562
0.00221951
0.000424982
0.000450991
0.00204752
0.0022226
0.0022343
0.00196948
0.00191674
0.0018231
0.00184416
0.00185501
0.0018853
0.00188753
0.00195342
0.0019481
0.00202762
0.00202141
0.00212486
0.00213606
0.00227203
0.00230516
0.00246908
0.00253562
0.00271152
0.00279942
0.00291573
0.00288437
0.0027421
0.00228306
0.00155331
0.000565798
0.000936025
0.00050074
0.0020101
0.00222984
0.00222866
0.0019917
0.0019116
0.00183028
0.0018367
0.00185795
0.00188075
0.00189145
0.00194662
0.00195187
0.00201245
0.00202286
0.00210921
0.00213312
0.00225027
0.00228978
0.00243681
0.00250122
0.00265431
0.00271596
0.00280572
0.00274772
0.00257792
0.00205059
0.00121752
0.000145248
0.00058706
0.000556709
0.00196465
0.00223484
0.00222067
0.00201035
0.00190959
0.00183553
0.00183005
0.00186155
0.00187402
0.00189986
0.00193582
0.00196582
0.00199465
0.00204375
0.00208088
0.00214958
0.00220924
0.00229378
0.00237715
0.00247359
0.00256054
0.00263656
0.00265073
0.00261951
0.00245478
0.00218812
0.00175799
0.00116392
-0.000975646
0.000615877
0.00192964
0.00223116
0.00223024
0.00202642
0.00191252
0.00183689
0.00182578
0.00186125
0.00187043
0.00190244
0.00193032
0.00196984
0.00198472
0.00204821
0.00206337
0.00214699
0.00218124
0.00227566
0.0023278
0.00242267
0.00247431
0.00253383
0.00252933
0.00248156
0.00236044
0.00216099
0.00166622
0.000568023
-0.00317967
0.000682883
0.00187515
0.00222988
0.00219779
0.00205557
0.00191796
0.00184349
0.00182314
0.00186115
0.00187029
0.0018981
0.00193192
0.00196148
0.00198799
0.00203363
0.00207245
0.0021246
0.00217995
0.00223692
0.00229822
0.00235596
0.00239819
0.00243718
0.00241818
0.00232977
0.00211632
0.0017399
0.0011895
0.000392428
-0.00221638
0.000747898
0.00184276
0.00221104
0.00223165
0.0020497
0.00193642
0.00183231
0.0018379
0.00184109
0.00188907
0.0018744
0.00195575
0.00193373
0.00201473
0.00199659
0.00208459
0.00208162
0.0021694
0.00217849
0.00225043
0.00226949
0.0023161
0.00233036
0.00231872
0.00217097
0.00193222
0.00122113
2.41873e-05
-0.00162802
-0.00236567
0.000826557
0.00179219
0.00219717
0.00218606
0.00209141
0.00193574
0.00185562
0.00182297
0.00185919
0.00186982
0.00189339
0.00193234
0.00195776
0.00198763
0.00202435
0.00205497
0.00209015
0.00212532
0.00215407
0.00217756
0.00220216
0.00220853
0.00220251
0.00214604
0.00202057
0.00179147
0.00145016
0.000968367
2.68862e-05
-0.00321806
0.00089691
0.00176477
0.00216433
0.0022076
0.00209139
0.0019539
0.00185822
0.00182532
0.00185384
0.00186643
0.00188843
0.00192591
0.00195217
0.00197707
0.00201066
0.00203907
0.00206815
0.00209971
0.0021156
0.002124
0.00212275
0.00209247
0.00205576
0.00197559
0.00187444
0.00170317
0.00143078
0.000715173
-0.00097354
-0.00535261
0.000975704
0.00173228
0.0021273
0.00218889
0.00210755
0.00196684
0.001871
0.00182944
0.00185893
0.00186408
0.00188705
0.00192087
0.00194817
0.00197271
0.00200564
0.00203404
0.00205315
0.00206378
0.00206781
0.00205045
0.00203001
0.00197794
0.00190959
0.00179714
0.00165713
0.00145096
0.00114142
0.000403185
-0.00132638
-0.00575615
0.00106323
0.00171244
0.00208606
0.00216297
0.00211905
0.00197699
0.00188516
0.00183527
0.00185938
0.00185982
0.00187945
0.00191266
0.00194112
0.00196309
0.00199259
0.00201472
0.00202482
0.00203151
0.00202178
0.00198033
0.0019374
0.00186208
0.00177011
0.00161005
0.00136825
0.000997466
0.000541878
-1.95974e-05
-0.000930134
-0.00418314
0.00110316
0.0017302
0.00203956
0.00218019
0.0020839
0.00202753
0.00188098
0.00187365
0.00184009
0.00187555
0.00185538
0.00191541
0.00192257
0.00195621
0.00197041
0.00199018
0.00199163
0.00198776
0.00196966
0.00191631
0.0018353
0.00174358
0.00160375
0.00145238
0.00114856
0.000612358
-0.000471484
-0.00196597
-0.00385132
-0.00357714
0.00122852
0.00168205
0.00200703
0.00211686
0.00211627
0.00201359
0.00192265
0.00186672
0.0018609
0.00185676
0.00186046
0.00189701
0.00192275
0.00194226
0.00196076
0.00196469
0.00196064
0.00193773
0.00190586
0.00183268
0.00174176
0.0015994
0.00140783
0.00117865
0.000946719
0.00066895
0.000335676
-5.78106e-05
-0.000575722
-0.00347365
0.00124562
0.00172753
0.00196532
0.00213704
0.00207835
0.00205754
0.0019125
0.00189526
0.00184817
0.00186353
0.00184646
0.00188807
0.00190823
0.0019215
0.00193539
0.00193389
0.00192511
0.00189608
0.0018372
0.00176672
0.00165607
0.00153966
0.0013698
0.001167
0.000768186
2.77761e-05
-0.0012308
-0.00286283
-0.00478141
-0.00417545
0.00136786
0.00168075
0.00194339
0.00207275
0.00209906
0.00204429
0.00196422
0.00189975
0.00187203
0.00184931
0.00184226
0.00186788
0.00189429
0.00190227
0.00190813
0.001898
0.00187148
0.0018278
0.00177507
0.00169281
0.00158663
0.00145038
0.00126498
0.00100587
0.000688564
0.000349835
1.7809e-05
-0.000427658
-0.0016575
-0.00570059
0.00143519
0.00168091
0.00192473
0.00204923
0.00209592
0.00204681
0.00197991
0.00190083
0.00187693
0.00184726
0.00183552
0.00185264
0.00187225
0.00187997
0.00187604
0.00186773
0.00183366
0.00177545
0.00172056
0.00162333
0.00151233
0.00135368
0.00117139
0.000936831
0.000669064
0.000290847
-0.000307397
-0.00145106
-0.00368844
-0.00871465
0.00145942
0.00172218
0.00190914
0.00202305
0.0020713
0.00205619
0.00199385
0.00192803
0.00188967
0.0018593
0.00183121
0.00183704
0.00185058
0.0018406
0.00183291
0.0018145
0.00177925
0.00172358
0.00165921
0.00156023
0.0014328
0.00126169
0.001056
0.000796609
0.000480607
4.25883e-05
-0.000646937
-0.00187077
-0.00420703
-0.00923154
0.00159787
0.00167828
0.00189236
0.00199253
0.00205938
0.00203886
0.00199389
0.00193002
0.00189731
0.00186359
0.00182493
0.00182371
0.00182414
0.00181657
0.00179919
0.00177109
0.00173893
0.00167198
0.00160424
0.00149532
0.00136342
0.00117228
0.000924954
0.00056436
0.000110995
-0.000422091
-0.00099449
-0.00177274
-0.00331696
-0.00795247
0.00153374
0.00181923
0.0018663
0.00201227
0.00199829
0.00206737
0.00196456
0.00196544
0.00188616
0.00188257
0.00180782
0.00180275
0.00178614
0.00176724
0.00174618
0.00172317
0.00169997
0.00163505
0.00154472
0.00144517
0.00128285
0.00110912
0.000825667
0.000440404
-0.000285691
-0.00139797
-0.00293305
-0.00478797
-0.0068592
-0.00593239
0.00169982
0.00175526
0.00187261
0.00195197
0.00200139
0.0020259
0.00200119
0.00195561
0.0019277
0.00188494
0.00181735
0.00177309
0.00174944
0.00171459
0.00168653
0.00165893
0.00162656
0.00156191
0.00148222
0.00137112
0.00122249
0.00102024
0.000751735
0.0003994
-2.17578e-05
-0.000497986
-0.00108114
-0.00202949
-0.00409884
-0.00933782
0.0017059
0.00177451
0.00189364
0.00195329
0.00199826
0.00200797
0.00198937
0.00194878
0.00191912
0.00187584
0.00180559
0.00176177
0.00172041
0.00168021
0.00163812
0.00159442
0.00156396
0.00149503
0.00142175
0.00130529
0.001167
0.000968864
0.000736868
0.000422442
7.85134e-06
-0.000664857
-0.00173077
-0.00353386
-0.00659876
-0.012461
0.00172866
0.00185407
0.00190703
0.00194114
0.00196942
0.00198059
0.00197319
0.00194585
0.00193107
0.001882
0.00181133
0.00173539
0.00167246
0.00162066
0.00156633
0.00153634
0.0014966
0.0014408
0.00135462
0.00124919
0.00110536
0.000922596
0.000680751
0.000360478
-0.000108531
-0.000804546
-0.00188291
-0.00363019
-0.00674358
-0.012764
0.00181549
0.00185677
0.0019013
0.00192718
0.00194872
0.00196449
0.00195403
0.00194046
0.00192764
0.00188487
0.00178784
0.00169327
0.00162823
0.00156831
0.00151686
0.00147732
0.00143938
0.00137867
0.00129275
0.00118258
0.00104088
0.000853715
0.000604634
0.000263819
-0.000221569
-0.000942298
-0.00206746
-0.00394447
-0.0072969
-0.0136379
0.00182273
0.00189172
0.00193555
0.00194294
0.00194127
0.00194279
0.00193367
0.00191841
0.0019072
0.00186079
0.00177007
0.00167377
0.00159829
0.00153146
0.0014674
0.00141848
0.00137407
0.00131218
0.00122321
0.0011096
0.000964434
0.000771994
0.000511363
0.000153715
-0.000355225
-0.0011172
-0.00232607
-0.00433876
-0.00785381
-0.0143419
0.00187503
0.00193056
0.00195262
0.00194443
0.00193033
0.00192287
0.00190798
0.00188603
0.00186796
0.00182729
0.00174526
0.00165108
0.00157034
0.00149491
0.00141955
0.00135824
0.00130578
0.00124068
0.00114854
0.00102972
0.000878345
0.000678465
0.000405951
2.84807e-05
-0.000513712
-0.00132935
-0.00261395
-0.00471912
-0.0083288
-0.0148671
0.00191439
0.00195435
0.00196573
0.00195115
0.00192813
0.00190968
0.00188441
0.00185334
0.00182827
0.00178888
0.00171367
0.00162358
0.00154123
0.00146027
0.00137514
0.00130041
0.00123741
0.00116648
0.00106976
0.00094407
0.000784223
0.000574542
0.000288142
-0.000112469
-0.000689977
-0.00155298
-0.00289369
-0.00505928
-0.00871352
-0.0152695
0.00195243
0.00198186
0.00198437
0.00196138
0.00192802
0.00189693
0.00186044
0.0018195
0.00178592
0.00174481
0.00167381
0.00158764
0.00150623
0.00142326
0.00133137
0.00124437
0.00116892
0.00108976
0.000986542
0.000852167
0.000681498
0.000459448
0.00015706
-0.000266543
-0.000874911
-0.00177458
-0.00315457
-0.00535482
-0.00903692
-0.0156138
0.0019915
0.00201141
0.00200117
0.00196742
0.00192407
0.0018828
0.00183617
0.00178507
0.00174232
0.00169763
0.00162911
0.00154554
0.00146528
0.00138209
0.0012865
0.00118898
0.00110048
0.00101071
0.000899113
0.000754643
0.000571461
0.000335168
1.67364e-05
-0.0004269
-0.00105973
-0.00198681
-0.00339208
-0.00561095
-0.00930392
-0.0158872
0.00202853
0.00203896
0.00201811
0.00197357
0.00191953
0.00186758
0.00181182
0.00175174
0.00170012
0.00165054
0.00158237
0.00149972
0.00141889
0.00133561
0.001238
0.0011324
0.00103117
0.000929295
0.00080787
0.000652654
0.00045608
0.000204894
-0.000128911
-0.000589139
-0.00124064
-0.00218732
-0.00360877
-0.00583977
-0.00954229
-0.0161366
0.00206372
0.00206589
0.00203508
0.00198011
0.00191454
0.00185116
0.00178623
0.00171798
0.00165791
0.00160268
0.00153352
0.00145024
0.00136754
0.00128336
0.00118449
0.00107252
0.000959711
0.000845299
0.00071315
0.000546978
0.00033719
7.12371e-05
-0.000276931
-0.000750949
-0.0014166
-0.00237664
-0.00380994
-0.00605037
-0.0097595
-0.0163616
0.00209661
0.00209205
0.00205208
0.00198716
0.00190936
0.00183354
0.00175914
0.00168313
0.00161523
0.00155411
0.00148301
0.00139823
0.00131255
0.00122595
0.00112573
0.00100881
0.000885639
0.000758791
0.00061559
0.00043882
0.000216766
-6.31166e-05
-0.000424714
-0.000910611
-0.00158639
-0.00255587
-0.00399842
-0.00624747
-0.00996273
-0.0165659
0.00212507
0.00211634
0.00207003
0.0019948
0.00190422
0.00181531
0.00173071
0.00164722
0.00157184
0.00150487
0.00143099
0.00134433
0.00125469
0.00116446
0.0010619
0.000941045
0.0008088
0.00067008
0.000515665
0.000328879
9.57976e-05
-0.000196499
-0.000570416
-0.00106657
-0.00175005
-0.00272597
-0.00417516
-0.00643126
-0.0101551
-0.0167692
0.00215259
0.00213941
0.00208589
0.0020007
0.00189847
0.00179699
0.00170193
0.00161059
0.00152782
0.00145472
0.00137751
0.0012885
0.0011945
0.00109949
0.000993682
0.000869121
0.000729238
0.000579511
0.000413975
0.000217586
-2.50632e-05
-0.000328054
-0.000712924
-0.00121785
-0.00190754
-0.00288787
-0.00434086
-0.00660075
-0.0103298
-0.0169526
0.00218036
0.00216122
0.0020984
0.00200415
0.00189167
0.00177856
0.00167306
0.00157346
0.00148325
0.00140355
0.00132256
0.00123074
0.00113229
0.00103163
0.000921735
0.000793317
0.000646997
0.000487274
0.000311112
0.0001055
-0.000145437
-0.000457272
-0.000851073
-0.00136362
-0.00205852
-0.00304204
-0.00449658
-0.00675615
-0.0104803
-0.0170935
0.00220484
0.00218089
0.00211033
0.00200682
0.00188405
0.00175976
0.00164401
0.00153603
0.00143806
0.0013515
0.00126613
0.00117122
0.00106822
0.000961564
0.000846664
0.000714248
0.000562237
0.000393806
0.000207729
-6.6435e-06
-0.000264832
-0.000583528
-0.000984278
-0.00150315
-0.00220252
-0.0031882
-0.00464296
-0.00690168
-0.0106259
-0.0172446
0.00222605
0.00219844
0.00212152
0.00200876
0.00187556
0.00174023
0.00161437
0.00149803
0.0013923
0.00129872
0.00120838
0.00111005
0.00100251
0.000889781
0.000769221
0.000632508
0.000475439
0.000299594
0.000104577
-0.000117949
-0.000382412
-0.000706299
-0.00111227
-0.0016361
-0.00233925
-0.00332679
-0.00478195
-0.00704063
-0.0107656
-0.0173855
0.00224598
0.00221448
0.00213047
0.00200926
0.0018661
0.00171991
0.00158401
0.00145938
0.00134609
0.00124533
0.00114954
0.00104735
0.000935431
0.000816698
0.000690162
0.000548733
0.000387136
0.000205057
2.29472e-06
-0.000227531
-0.000497445
-0.000825384
-0.00123504
-0.00176256
-0.00246873
-0.0034581
-0.00491391
-0.00717273
-0.0108974
-0.0175162
0.00226321
0.00222824
0.00213794
0.00200846
0.00185565
0.00169884
0.001553
0.00142023
0.00129956
0.00119155
0.00108986
0.000983445
0.000867249
0.000742847
0.000610197
0.000463767
0.000297907
0.000110743
-9.84743e-05
-0.0003346
-0.00060935
-0.000940546
-0.00135274
-0.00188269
-0.002591
-0.00358168
-0.00503787
-0.00729661
-0.0110214
-0.0176398
0.00227777
0.00223972
0.00214371
0.00200619
0.00184404
0.00167707
0.00152155
0.00138072
0.00125279
0.00113756
0.00102962
0.000918658
0.000798269
0.000668623
0.000530002
0.000378415
0.000208403
1.69815e-05
-0.000197274
-0.00043862
-0.000717623
-0.00105156
-0.00146549
-0.00199677
-0.00270616
-0.0036972
-0.00515283
-0.00741048
-0.0111353
-0.0177581
0.00229086
0.00224943
0.00214719
0.00200189
0.00183104
0.00165459
0.00148975
0.00134093
0.0012059
0.00108357
0.000969251
0.000853376
0.000728786
0.000594266
0.000450082
0.000293365
0.000119313
-7.56878e-05
-0.000293779
-0.000539273
-0.000821862
-0.00115818
-0.00157329
-0.00210508
-0.00281453
-0.00380501
-0.00525908
-0.0075141
-0.0112355
-0.0178559
0.00230182
0.00225695
0.00214856
0.0019957
0.00181669
0.00163145
0.00145771
0.00130098
0.001159
0.00102979
0.000909038
0.000787954
0.000659091
0.000520085
0.000370889
0.000209333
3.13775e-05
-0.000166662
-0.000387686
-0.000636343
-0.000921814
-0.0012601
-0.00167604
-0.0022078
-0.00291659
-0.00390582
-0.00535778
-0.00760987
-0.0113286
-0.0179495
0.00231008
0.00226219
0.00214838
0.00198847
0.00180166
0.00160798
0.00142555
0.00126095
0.00111214
0.000976351
0.000849242
0.000722808
0.000589637
0.000446496
0.000292841
0.000126862
-5.46741e-05
-0.000255411
-0.000478758
-0.000729753
-0.0010174
-0.0013572
-0.00177369
-0.00230511
-0.00301297
-0.0040009
-0.00545125
-0.00770143
-0.0114179
-0.0180377
0.00231528
0.00226503
0.00214679
0.00198055
0.00178622
0.00158433
0.00139342
0.00122102
0.00106549
0.000923442
0.00079022
0.000658448
0.000520935
0.000373935
0.000216331
4.65033e-05
-0.000138255
-0.000341399
-0.00056665
-0.000819354
-0.00110855
-0.00144943
-0.00186628
-0.0023973
-0.00310426
-0.00409105
-0.00554034
-0.00779011
-0.0115081
-0.0181319
0.00231809
0.00226575
0.00214352
0.0019714
0.00177008
0.00156052
0.00136158
0.0011816
0.00101943
0.000871363
0.000732345
0.000595359
0.000453554
0.000302916
0.000141876
-3.11893e-05
-0.000218777
-0.000424094
-0.000650967
-0.000904954
-0.00119521
-0.00153681
-0.00195388
-0.00248456
-0.0031908
-0.00417672
-0.00562531
-0.00787475
-0.0115928
-0.0182171
0.00231931
0.0022647
0.00213835
0.0019607
0.001753
0.00153656
0.00133027
0.00114301
0.000974313
0.000820442
0.000676
0.000534069
0.000388126
0.000234092
7.00712e-05
-0.00010578
-0.000295836
-0.000503107
-0.000731369
-0.000986335
-0.00127729
-0.00161932
-0.00203646
-0.00256685
-0.00327245
-0.00425758
-0.00570536
-0.00795403
-0.0116713
-0.0182948
0.00231864
0.0022618
0.0021317
0.00194908
0.00173548
0.00151267
0.00129964
0.00110555
0.000930573
0.000771154
0.000621661
0.000475129
0.000325278
0.000168059
1.34103e-06
-0.00017692
-0.000369097
-0.000578063
-0.00080752
-0.00106325
-0.00135466
-0.00169689
-0.00211397
-0.00264398
-0.00334889
-0.00433306
-0.00577966
-0.00802701
-0.011743
-0.0183661
0.00231591
0.00225739
0.00212403
0.00193689
0.00171785
0.0014891
0.00126987
0.00106948
0.000888579
0.000723916
0.000569739
0.000418977
0.000265484
0.00010529
-6.38772e-05
-0.000244238
-0.000438222
-0.000648649
-0.00087914
-0.00113549
-0.00142717
-0.00176939
-0.0021862
-0.00271565
-0.0034197
-0.00440272
-0.00584797
-0.00809393
-0.0118089
-0.018432
0.00231211
0.00225184
0.00211551
0.00192434
0.00170036
0.00146615
0.00124124
0.00103511
0.000848721
0.00067914
0.000520646
0.000366053
0.000209228
4.62923e-05
-0.000125099
-0.000307298
-0.000502822
-0.000714474
-0.000945822
-0.00120264
-0.00149442
-0.00183644
-0.00225278
-0.00278153
-0.00348463
-0.00446648
-0.00591047
-0.00815527
-0.0118695
-0.0184929
0.00230729
0.00224547
0.00210649
0.00191172
0.00168333
0.00144417
0.00121411
0.0010028
0.000811406
0.000637297
0.000474865
0.000316841
0.000157035
-8.40144e-06
-0.000181797
-0.000365597
-0.00056239
-0.000775022
-0.00100704
-0.00126419
-0.00155597
-0.00189771
-0.00231353
-0.00284154
-0.00354374
-0.00452455
-0.00596742
-0.00821123
-0.0119249
-0.0185486
0.00230193
0.00223874
0.00209738
0.00189941
0.00166713
0.00142357
0.00118889
0.000972964
0.00077711
0.000598928
0.000432948
0.000271872
0.000109434
-5.82202e-05
-0.000233396
-0.000418568
-0.000616403
-0.000829805
-0.00106234
-0.00131975
-0.00161151
-0.00195297
-0.00236831
-0.00289569
-0.00359713
-0.00457707
-0.006019
-0.00826187
-0.0119748
-0.0185988
0.00229648
0.00223211
0.00208866
0.00188788
0.00165219
0.00140478
0.00116606
0.00094612
0.00074643
0.000564698
0.000395599
0.000231861
6.71589e-05
-0.000102416
-0.000279151
-0.000465523
-0.000664244
-0.000878276
-0.00111123
-0.00136884
-0.00166059
-0.00200184
-0.00241678
-0.00294365
-0.00364454
-0.0046239
-0.00606524
-0.00830752
-0.0120199
-0.0186438
0.00229133
0.00222601
0.00208083
0.00187764
0.00163901
0.0013883
0.00114615
0.000922877
0.000720032
0.000535393
0.000363717
0.000197789
3.12364e-05
-0.000139921
-0.000317975
-0.000505363
-0.000704808
-0.000919325
-0.00115257
-0.00141033
-0.00170208
-0.00204316
-0.00245782
-0.00298433
-0.00368485
-0.00466392
-0.00610507
-0.00834736
-0.0120601
-0.0186847
0.00228718
0.00222095
0.00207417
0.0018689
0.00162787
0.00137452
0.00112973
0.000903952
0.000698801
0.000512053
0.000338479
0.000170932
3.00792e-06
-0.000169314
-0.000348366
-0.000536511
-0.000736469
-0.000951292
-0.00118471
-0.00144253
-0.00173423
-0.00207516
-0.00248955
-0.00301574
-0.00371596
-0.00469483
-0.00613596
-0.00837841
-0.0120915
-0.0187165
0.00228515
0.00221831
0.00206954
0.00186151
0.00161742
0.0013612
0.00111394
0.000886057
0.000679046
0.000490513
0.000315242
0.00014608
-2.32916e-05
-0.000196943
-0.000377186
-0.000566382
-0.000767177
-0.000982659
-0.00121657
-0.00147474
-0.00176664
-0.00210757
-0.00252176
-0.00304752
-0.00374709
-0.00472515
-0.00616542
-0.00840726
-0.0121208
-0.018749
0.0142084
0.0139112
0.0124238
0.0102532
0.00745807
0.00416862
0.000549738
-0.00303683
-0.00587333
-0.00731612
-0.0073821
-0.00662403
-0.00561556
-0.00468317
-0.0039549
-0.00344975
-0.00313317
-0.00295325
-0.00286129
-0.0028195
-0.00280175
-0.00279157
-0.0027798
-0.00276236
-0.00273841
-0.00270902
-0.00267604
-0.00264152
-0.00260717
-0.00257431
-0.00254372
-0.00251575
-0.00249045
-0.0024677
-0.0024473
-0.00242906
-0.00241281
-0.00239843
-0.00238582
-0.00237487
-0.00236548
-0.00235755
-0.00235097
-0.00234563
-0.00234143
-0.00233825
-0.00233602
-0.00233466
-0.00233412
-0.00233437
-0.00233536
-0.00233707
-0.00233947
-0.00234255
-0.00234629
-0.00235066
-0.00235565
-0.00236122
-0.00236734
-0.00237401
-0.00238119
-0.00238887
-0.00239702
-0.00240563
-0.00241468
-0.00242413
-0.00243398
-0.00244421
-0.00245481
-0.00246575
-0.00247703
-0.00248863
-0.00250054
-0.00251277
-0.00252528
-0.00253807
-0.00255114
-0.00256447
-0.00257806
-0.00259191
-0.00260601
-0.00262037
-0.00263497
-0.00264981
-0.0026649
-0.00268022
-0.00269578
-0.00271157
-0.00272759
-0.00274383
-0.0027603
-0.00277699
-0.00279389
-0.00281101
-0.00282834
-0.00284586
-0.00286358
-0.00288149
-0.00289957
-0.00291782
-0.00293623
-0.00295479
-0.0029735
-0.00299236
-0.00301136
-0.00303049
-0.00304976
-0.00306915
-0.00308866
-0.0031083
-0.00312806
-0.00314794
-0.00316793
-0.00318805
-0.00320827
-0.00322862
-0.00324909
-0.00326969
-0.00329042
-0.00331129
-0.00333228
-0.00335339
-0.00337462
-0.00339599
-0.00341749
-0.00343914
-0.00346092
-0.00348285
-0.00350488
-0.00352702
-0.00354928
-0.00357165
-0.00359414
-0.00361673
-0.00363942
-0.00366219
-0.00368504
-0.00370796
-0.00373098
-0.00375408
-0.00377727
-0.00380052
-0.00382383
-0.00384719
-0.00387065
-0.00389418
-0.00391783
-0.00394155
-0.00396535
-0.00398921
-0.00401316
-0.0040372
-0.00406133
-0.00408556
-0.00410984
-0.0041342
-0.0041586
-0.00418311
-0.00420769
-0.00423236
-0.00425709
-0.0042819
-0.00430678
-0.00433175
-0.00435684
-0.004382
-0.00440726
-0.00443259
-0.00445802
-0.00448354
-0.00450918
-0.00453487
-0.00456066
-0.00458647
-0.00461238
-0.00463832
-0.00466432
-0.00469037
-0.00471645
-0.00474258
-0.00476876
-0.00479502
-0.00482134
-0.00484776
-0.00487425
-0.00490087