/*--------------------------------*- C++ -*----------------------------------*\
| =========                 |                                                 |
| \\      /  F ield         | OpenFOAM: The Open Source CFD Toolbox           |
|  \\    /   O peration     | Version:  v2006                                 |
|   \\  /    A nd           | Website:  www.openfoam.com                      |
|    \\/     M anipulation  |                                                 |
\*---------------------------------------------------------------------------*/
FoamFile
{
    version     2.0;
    format      ascii;
    class       surfaceScalarField;
    location    "1.2";
    object      phi;
}
// * * * * * * * * * * * * * * * * * * * * * * * * * * * * * * * * * * * * * //

dimensions      [0 3 -1 0 0 0 0];
oriented        oriented;


internalField   nonuniform List<scalar> 
52390
(
1.17008e-06
-3.19421e-07
1.17004e-06
2.74718e-07
1.17302e-06
-2.5271e-07
1.17327e-06
2.23683e-07
1.17677e-06
-2.11433e-07
1.17684e-06
1.71675e-07
1.18035e-06
-1.67449e-07
1.1802e-06
1.2557e-07
1.18342e-06
-1.36157e-07
1.18309e-06
9.46745e-08
1.18603e-06
-1.11148e-07
1.18548e-06
7.50449e-08
1.18829e-06
-8.83935e-08
1.18755e-06
5.90788e-08
1.19029e-06
-7.03657e-08
1.18931e-06
4.40123e-08
1.19197e-06
-5.77525e-08
1.19067e-06
3.11827e-08
1.19327e-06
-4.79115e-08
1.19152e-06
2.15718e-08
1.19413e-06
-3.94363e-08
1.19181e-06
1.49673e-08
1.19452e-06
-3.14882e-08
1.19142e-06
1.05073e-08
1.19432e-06
-2.32078e-08
1.19039e-06
7.12631e-09
1.19295e-06
-1.16545e-08
1.1867e-06
4.39717e-09
1.18223e-06
1.86577e-08
2.36743e-08
1.15374e-06
1.22713e-06
-3.22292e-07
1.22761e-06
2.74237e-07
1.23142e-06
-2.56517e-07
1.23223e-06
2.22873e-07
1.23607e-06
-2.1527e-07
1.2365e-06
1.71242e-07
1.23998e-06
-1.70925e-07
1.24019e-06
1.25356e-07
1.2431e-06
-1.39066e-07
1.24329e-06
9.44876e-08
1.24561e-06
-1.13473e-07
1.24585e-06
7.48092e-08
1.24767e-06
-9.0217e-08
1.24808e-06
5.86732e-08
1.24935e-06
-7.16357e-08
1.25001e-06
4.33498e-08
1.25056e-06
-5.83073e-08
1.25159e-06
3.01584e-08
1.25123e-06
-4.75502e-08
1.2528e-06
2.00007e-08
1.25126e-06
-3.78994e-08
1.25362e-06
1.26066e-08
1.25058e-06
-2.84479e-08
1.25396e-06
7.12439e-09
1.24908e-06
-1.83266e-08
1.25351e-06
2.70186e-09
1.24647e-06
-4.61331e-09
1.24977e-06
1.08942e-09
1.23789e-06
3.05395e-08
3.89685e-08
1.2226e-06
1.28551e-06
-3.25017e-07
1.28898e-06
2.70765e-07
1.29172e-06
-2.59256e-07
1.29502e-06
2.19571e-07
1.29716e-06
-2.17406e-07
1.30001e-06
1.68388e-07
1.30133e-06
-1.72241e-07
1.30392e-06
1.22765e-07
1.30434e-06
-1.39494e-07
1.30698e-06
9.18522e-08
1.30655e-06
-1.13038e-07
1.30939e-06
7.19615e-08
1.30817e-06
-8.8999e-08
1.31133e-06
5.55162e-08
1.30932e-06
-6.96197e-08
1.31279e-06
3.98744e-08
1.30993e-06
-5.54487e-08
1.31372e-06
2.63758e-08
1.31003e-06
-4.38607e-08
1.31407e-06
1.59543e-08
1.30963e-06
-3.34563e-08
1.31379e-06
8.44653e-09
1.30878e-06
-2.34437e-08
1.31269e-06
3.21992e-09
1.30756e-06
-1.31952e-08
1.31039e-06
-1.30713e-10
1.30604e-06
-2.6561e-10
1.30362e-06
3.50907e-09
1.30074e-06
3.34226e-08
6.14649e-08
1.27824e-06
1.34585e-06
-3.26767e-07
1.35192e-06
2.64695e-07
1.35315e-06
-2.60483e-07
1.3587e-06
2.14023e-07
1.35886e-06
-2.1757e-07
1.36388e-06
1.63373e-07
1.36298e-06
-1.71346e-07
1.36749e-06
1.18254e-07
1.3657e-06
-1.37701e-07
1.37004e-06
8.75131e-08
1.36751e-06
-1.10511e-07
1.37184e-06
6.76333e-08
1.36876e-06
-8.59172e-08
1.37305e-06
5.12308e-08
1.36952e-06
-6.60895e-08
1.37363e-06
3.57559e-08
1.36977e-06
-5.15851e-08
1.37363e-06
2.2516e-08
1.3696e-06
-3.98308e-08
1.3731e-06
1.24521e-08
1.36907e-06
-2.94263e-08
1.37206e-06
5.456e-09
1.36822e-06
-1.96014e-08
1.37039e-06
1.05279e-09
1.36713e-06
-9.9341e-09
1.36758e-06
-5.80069e-10
1.36586e-06
1.45222e-09
1.36065e-06
8.71688e-09
1.36017e-06
3.39065e-08
8.46607e-08
1.33697e-06
1.40858e-06
-3.26992e-07
1.41605e-06
2.57225e-07
1.41573e-06
-2.60161e-07
1.42245e-06
2.07304e-07
1.42099e-06
-2.16118e-07
1.42708e-06
1.57285e-07
1.42471e-06
-1.68973e-07
1.42996e-06
1.13005e-07
1.42701e-06
-1.34751e-07
1.43176e-06
8.27641e-08
1.42848e-06
-1.07238e-07
1.43292e-06
6.31981e-08
1.42951e-06
-8.25093e-08
1.43356e-06
4.71785e-08
1.43009e-06
-6.26198e-08
1.43366e-06
3.21921e-08
1.43019e-06
-4.81188e-08
1.43328e-06
1.94296e-08
1.42991e-06
-3.64589e-08
1.43254e-06
9.81777e-09
1.42931e-06
-2.61972e-08
1.43145e-06
3.31717e-09
1.42844e-06
-1.6591e-08
1.42982e-06
-3.27218e-10
1.42734e-06
-7.45744e-09
1.42712e-06
-3.56291e-10
1.42559e-06
2.97698e-09
1.42118e-06
1.31291e-08
1.41831e-06
3.67785e-08
1.10585e-07
1.39239e-06
1.47428e-06
-3.256e-07
1.48183e-06
2.49676e-07
1.48028e-06
-2.58606e-07
1.48698e-06
2.00603e-07
1.48456e-06
-2.13701e-07
1.49061e-06
1.51237e-07
1.48763e-06
-1.65995e-07
1.49264e-06
1.07993e-07
1.48946e-06
-1.3157e-07
1.49383e-06
7.83968e-08
1.49065e-06
-1.04063e-07
1.49464e-06
5.92139e-08
1.49156e-06
-7.94293e-08
1.49512e-06
4.36141e-08
1.49208e-06
-5.95791e-08
1.49517e-06
2.9103e-08
1.49214e-06
-4.50827e-08
1.49483e-06
1.67382e-08
1.49183e-06
-3.34633e-08
1.49418e-06
7.46612e-09
1.49126e-06
-2.32697e-08
1.49321e-06
1.366e-09
1.49043e-06
-1.38109e-08
1.49171e-06
-1.60687e-09
1.48919e-06
-4.94333e-09
1.48943e-06
-5.98863e-10
1.48655e-06
5.86626e-09
1.48437e-06
1.53035e-08
1.4833e-06
3.78525e-08
6.4161e-08
1.52972e-06
1.54347e-06
-3.22856e-07
1.55024e-06
2.42908e-07
1.54785e-06
-2.56214e-07
1.55383e-06
1.94624e-07
1.55095e-06
-2.10821e-07
1.55639e-06
1.45797e-07
1.55329e-06
-1.62896e-07
1.55773e-06
1.03548e-07
1.55464e-06
-1.28476e-07
1.55853e-06
7.45063e-08
1.55556e-06
-1.01091e-07
1.5592e-06
5.5574e-08
1.55635e-06
-7.65792e-08
1.5597e-06
4.02609e-08
1.55684e-06
-5.67212e-08
1.55984e-06
2.61085e-08
1.55691e-06
-4.21544e-08
1.55959e-06
1.40583e-08
1.55665e-06
-3.05235e-08
1.55902e-06
5.0953e-09
1.55615e-06
-2.03983e-08
1.55808e-06
-5.59558e-10
1.55542e-06
-1.11517e-08
1.55652e-06
-2.71002e-09
1.55441e-06
-2.83311e-09
1.55374e-06
7.28764e-11
1.55262e-06
6.984e-09
1.54775e-06
2.01778e-08
1.5435e-06
4.20955e-08
9.50555e-08
1.51261e-06
1.61641e-06
-3.19141e-07
1.6222e-06
2.37122e-07
1.61922e-06
-2.53238e-07
1.62439e-06
1.89458e-07
1.62123e-06
-2.07666e-07
1.62606e-06
1.40968e-07
1.6229e-06
-1.5973e-07
1.62692e-06
9.95291e-08
1.62381e-06
-1.25364e-07
1.62745e-06
7.08613e-08
1.62445e-06
-9.80912e-08
1.628e-06
5.20236e-08
1.6251e-06
-7.36761e-08
1.62848e-06
3.6876e-08
1.62555e-06
-5.3785e-08
1.62864e-06
2.30125e-08
1.62563e-06
-3.91402e-08
1.62841e-06
1.12764e-08
1.62542e-06
-2.7529e-08
1.62782e-06
2.68712e-09
1.62499e-06
-1.75598e-08
1.62682e-06
-2.39054e-09
1.62431e-06
-8.64556e-09
1.62514e-06
-3.53585e-09
1.62336e-06
-1.05346e-09
1.62202e-06
1.41252e-09
1.6216e-06
7.3977e-09
1.61652e-06
2.52595e-08
1.61177e-06
4.6843e-08
1.31623e-07
1.57521e-06
1.69319e-06
-3.14756e-07
1.69826e-06
2.32048e-07
1.69478e-06
-2.4975e-07
1.69942e-06
1.84811e-07
1.69596e-06
-2.04202e-07
1.70046e-06
1.3647e-07
1.69709e-06
-1.56362e-07
1.70096e-06
9.56535e-08
1.69763e-06
-1.22033e-07
1.70127e-06
6.72207e-08
1.69802e-06
-9.48438e-08
1.70165e-06
4.83934e-08
1.6985e-06
-7.05262e-08
1.70202e-06
3.33578e-08
1.69887e-06
-5.06372e-08
1.70212e-06
1.97717e-08
1.69895e-06
-3.59735e-08
1.70182e-06
8.40206e-09
1.69876e-06
-2.44638e-08
1.70116e-06
2.88218e-10
1.69834e-06
-1.47473e-08
1.70007e-06
-4.11262e-09
1.69758e-06
-6.16317e-09
1.69855e-06
-4.49716e-09
1.69572e-06
1.77589e-09
1.69647e-06
6.63413e-10
1.69131e-06
1.25519e-08
1.69584e-06
2.07332e-08
1.69692e-06
4.57589e-08
8.21419e-08
1.7464e-06
1.77383e-06
-3.09867e-07
1.77863e-06
2.2725e-07
1.77461e-06
-2.45726e-07
1.77911e-06
1.80308e-07
1.77524e-06
-2.00332e-07
1.77971e-06
1.31995e-07
1.776e-06
-1.52652e-07
1.77998e-06
9.16802e-08
1.77629e-06
-1.18345e-07
1.78009e-06
6.34214e-08
1.77648e-06
-9.12332e-08
1.78028e-06
4.45952e-08
1.7768e-06
-6.70478e-08
1.78048e-06
2.9677e-08
1.77708e-06
-4.72413e-08
1.78045e-06
1.64032e-08
1.77714e-06
-3.26652e-08
1.78005e-06
5.49735e-09
1.77698e-06
-2.13967e-08
1.77924e-06
-1.97247e-09
1.77659e-06
-1.20975e-08
1.778e-06
-5.52482e-09
1.77581e-06
-3.96942e-09
1.7763e-06
-4.99104e-09
1.77372e-06
4.35908e-09
1.7743e-06
8.33453e-11
1.7682e-06
1.8649e-08
1.77463e-06
1.43103e-08
1.77628e-06
4.41069e-08
2.63325e-08
1.83209e-06
1.85842e-06
-3.04539e-07
1.86332e-06
2.22346e-07
1.85871e-06
-2.41116e-07
1.86337e-06
1.7565e-07
1.85902e-06
-1.95978e-07
1.86371e-06
1.27307e-07
1.85957e-06
-1.48516e-07
1.86381e-06
8.74441e-08
1.8597e-06
-1.14237e-07
1.86376e-06
5.93613e-08
1.85975e-06
-8.72218e-08
1.86377e-06
4.05784e-08
1.85995e-06
-6.32297e-08
1.86379e-06
2.58291e-08
1.86017e-06
-4.36178e-08
1.86363e-06
1.29457e-08
1.86024e-06
-2.92727e-08
1.86309e-06
2.64013e-09
1.86011e-06
-1.84177e-08
1.86213e-06
-3.98933e-09
1.85976e-06
-9.73063e-09
1.86071e-06
-6.47235e-09
1.85902e-06
-2.27466e-09
1.85862e-06
-4.59036e-09
1.85743e-06
5.54535e-09
1.85533e-06
2.18397e-09
1.85366e-06
2.0323e-08
1.84865e-06
1.93156e-08
1.83888e-06
5.38807e-08
6.22166e-08
1.80299e-06
1.94708e-06
-2.98784e-07
1.95236e-06
2.17068e-07
1.94712e-06
-2.35875e-07
1.95213e-06
1.7064e-07
1.94724e-06
-1.91085e-07
1.9523e-06
1.22249e-07
1.94769e-06
-1.43906e-07
1.95229e-06
8.28383e-08
1.94774e-06
-1.09686e-07
1.95213e-06
5.49752e-08
1.94772e-06
-8.28101e-08
1.95198e-06
3.6313e-08
1.94785e-06
-5.90971e-08
1.95185e-06
2.18247e-08
1.94806e-06
-3.98207e-08
1.95155e-06
9.45469e-09
1.94816e-06
-2.58861e-08
1.95087e-06
-7.14453e-11
1.9481e-06
-1.56459e-08
1.94976e-06
-5.65376e-09
1.94779e-06
-7.75634e-09
1.94818e-06
-6.86714e-09
1.94705e-06
-1.14474e-09
1.94584e-06
-3.38048e-09
1.94548e-06
5.90696e-09
1.94187e-06
5.80164e-09
1.94284e-06
1.93509e-08
1.93168e-06
3.04682e-08
1.92707e-06
5.84974e-08
9.34502e-08
1.89583e-06
2.04e-06
-2.92597e-07
2.04582e-06
2.11246e-07
2.03991e-06
-2.29961e-07
2.04539e-06
1.65156e-07
2.03992e-06
-1.85607e-07
2.04545e-06
1.16717e-07
2.04033e-06
-1.38792e-07
2.04538e-06
7.77963e-08
2.04037e-06
-1.04682e-07
2.04512e-06
5.02287e-08
2.04033e-06
-7.80199e-08
2.04485e-06
3.17958e-08
2.04045e-06
-5.47023e-08
2.04458e-06
1.77017e-08
2.04069e-06
-3.59356e-08
2.04413e-06
6.01627e-09
2.04087e-06
-2.26298e-08
2.04331e-06
-2.50766e-09
2.04089e-06
-1.32277e-08
2.04208e-06
-6.84393e-09
2.04061e-06
-6.28445e-09
2.04041e-06
-6.66432e-09
2.03973e-06
-4.64805e-10
2.03819e-06
-1.84769e-09
2.03744e-06
6.66221e-09
2.03426e-06
8.97791e-09
2.03317e-06
2.04432e-08
2.02613e-06
3.75095e-08
2.01463e-06
6.99923e-08
1.26707e-07
1.98138e-06
2.13737e-06
-2.85964e-07
2.14385e-06
2.04765e-07
2.13722e-06
-2.23331e-07
2.14326e-06
1.59117e-07
2.13716e-06
-1.79506e-07
2.14323e-06
1.10644e-07
2.13759e-06
-1.33152e-07
2.1431e-06
7.22815e-08
2.13765e-06
-9.92317e-08
2.14277e-06
4.51154e-08
2.13764e-06
-7.28878e-08
2.14238e-06
2.70513e-08
2.13779e-06
-5.01165e-08
2.14197e-06
1.35243e-08
2.1381e-06
-3.20656e-08
2.14138e-06
2.73308e-09
2.13838e-06
-1.96227e-08
2.14043e-06
-4.56441e-09
2.13847e-06
-1.12628e-08
2.13913e-06
-7.50261e-09
2.13814e-06
-5.29486e-09
2.1376e-06
-6.12987e-09
2.13671e-06
4.26397e-10
2.13585e-06
-9.85249e-10
2.13362e-06
8.88993e-09
2.13176e-06
1.08413e-08
2.12613e-06
2.60768e-08
2.13211e-06
3.15277e-08
2.15575e-06
4.63487e-08
5.18065e-08
2.23065e-06
2.23939e-06
-2.78868e-07
2.24661e-06
1.97543e-07
2.23922e-06
-2.15941e-07
2.24588e-06
1.52462e-07
2.23912e-06
-1.72746e-07
2.24578e-06
1.03987e-07
2.2396e-06
-1.26972e-07
2.24559e-06
6.62823e-08
2.23971e-06
-9.33516e-08
2.24517e-06
3.96585e-08
2.23976e-06
-6.74724e-08
2.24467e-06
2.21411e-08
2.23999e-06
-4.54417e-08
2.24412e-06
9.4007e-09
2.24041e-06
-2.83572e-08
2.24338e-06
-2.35808e-10
2.2408e-06
-1.70428e-08
2.2423e-06
-6.07308e-09
2.24096e-06
-9.91636e-09
2.24093e-06
-7.47329e-09
2.24061e-06
-4.98032e-09
2.23926e-06
-4.77398e-09
2.23935e-06
3.37939e-10
2.23701e-06
1.34845e-09
2.23639e-06
9.51744e-09
2.23297e-06
1.42566e-08
2.23056e-06
2.84865e-08
2.22352e-06
3.85654e-08
2.20748e-06
6.23878e-08
8.26638e-08
2.17663e-06
2.3463e-06
-2.71292e-07
2.35432e-06
1.8952e-07
2.34613e-06
-2.07744e-07
2.35344e-06
1.45149e-07
2.34599e-06
-1.65298e-07
2.35326e-06
9.67232e-08
2.34654e-06
-1.20252e-07
2.35301e-06
5.98077e-08
2.34673e-06
-8.7075e-08
2.35249e-06
3.39052e-08
2.34686e-06
-6.18502e-08
2.35185e-06
1.71533e-08
2.34721e-06
-4.0799e-08
2.35115e-06
5.46118e-09
2.34776e-06
-2.49676e-08
2.35025e-06
-2.73011e-09
2.34826e-06
-1.50468e-08
2.34909e-06
-6.90931e-09
2.34845e-06
-9.27137e-09
2.3477e-06
-6.71984e-09
2.34807e-06
-5.35508e-09
2.34576e-06
-2.46269e-09
2.34715e-06
-1.05061e-09
2.34288e-06
5.61537e-09
2.34459e-06
7.81024e-09
2.33869e-06
2.01564e-08
2.33957e-06
2.76094e-08
2.32475e-06
5.33837e-08
2.31521e-06
7.19297e-08
1.06916e-07
2.29095e-06
2.45832e-06
-2.63221e-07
2.46719e-06
1.80652e-07
2.45816e-06
-1.98707e-07
2.46615e-06
1.37152e-07
2.458e-06
-1.57151e-07
2.46587e-06
8.88549e-08
2.45863e-06
-1.13013e-07
2.46554e-06
5.28973e-08
2.45893e-06
-8.04653e-08
2.4649e-06
2.79388e-08
2.45918e-06
-5.61313e-08
2.46412e-06
1.22108e-08
2.45965e-06
-3.63286e-08
2.46328e-06
1.84004e-09
2.46033e-06
-2.20188e-08
2.46227e-06
-4.67039e-09
2.46088e-06
-1.36577e-08
2.46112e-06
-7.15497e-09
2.46092e-06
-9.06669e-09
2.45995e-06
-5.75104e-09
2.46013e-06
-5.53333e-09
2.4586e-06
-9.32449e-10
2.45834e-06
-7.91727e-10
2.45616e-06
7.7922e-09
2.45468e-06
9.29669e-09
2.45151e-06
2.33181e-08
2.44897e-06
3.01563e-08
2.44083e-06
6.15217e-08
2.42265e-06
9.01047e-08
1.41121e-07
2.38845e-06
2.57572e-06
-2.54649e-07
2.58546e-06
1.70911e-07
2.57557e-06
-1.88809e-07
2.58425e-06
1.28467e-07
2.57541e-06
-1.48311e-07
2.58386e-06
8.0408e-08
2.57615e-06
-1.05302e-07
2.58343e-06
4.56177e-08
2.57658e-06
-7.36147e-08
2.58264e-06
2.18756e-08
2.57696e-06
-5.04555e-08
2.58171e-06
7.46342e-09
2.57757e-06
-3.21863e-08
2.58073e-06
-1.3205e-09
2.57833e-06
-1.96249e-08
2.57967e-06
-6.00542e-09
2.57886e-06
-1.28441e-08
2.57865e-06
-6.94644e-09
2.57864e-06
-9.0553e-09
2.57784e-06
-4.9518e-09
2.57718e-06
-4.87537e-09
2.5773e-06
-1.0517e-09
2.5744e-06
2.10285e-09
2.57548e-06
6.71336e-09
2.57001e-06
1.47695e-08
2.56927e-06
2.40568e-08
2.56138e-06
3.80493e-08
2.57839e-06
4.45137e-08
2.61418e-06
5.43143e-08
5.42819e-08
2.70102e-06
2.69875e-06
-2.45572e-07
2.70938e-06
1.60278e-07
2.69862e-06
-1.78043e-07
2.70798e-06
1.19102e-07
2.69848e-06
-1.38806e-07
2.70745e-06
7.14318e-08
2.69934e-06
-9.71919e-08
2.70689e-06
3.80677e-08
2.69993e-06
-6.66543e-08
2.70593e-06
1.5876e-08
2.70049e-06
-4.50088e-08
2.70484e-06
3.11317e-09
2.70125e-06
-2.85944e-08
2.70373e-06
-3.79963e-09
2.70208e-06
-1.79752e-08
2.70266e-06
-6.59136e-09
2.70255e-06
-1.27345e-08
2.70168e-06
-6.07167e-09
2.70228e-06
-9.65752e-09
2.70071e-06
-3.37934e-09
2.70122e-06
-5.38483e-09
2.69934e-06
8.21238e-10
2.69905e-06
2.40035e-09
2.69674e-06
9.01502e-09
2.69482e-06
1.66957e-08
2.69191e-06
2.69634e-08
2.68839e-06
4.15667e-08
2.67933e-06
5.35819e-08
2.65817e-06
7.54706e-08
8.91292e-08
2.62332e-06
2.82768e-06
-2.35986e-07
2.83922e-06
1.48743e-07
2.82758e-06
-1.66409e-07
2.83761e-06
1.09075e-07
2.82747e-06
-1.28668e-07
2.83692e-06
6.1985e-08
2.82849e-06
-8.87615e-08
2.83621e-06
3.03479e-08
2.82926e-06
-5.97075e-08
2.83507e-06
1.00642e-08
2.82994e-06
-3.98794e-08
2.83385e-06
-7.92788e-10
2.83083e-06
-2.55754e-08
2.83265e-06
-5.61584e-09
2.83168e-06
-1.70124e-08
2.83163e-06
-6.53707e-09
2.83204e-06
-1.31477e-08
2.83072e-06
-4.74691e-09
2.83182e-06
-1.07556e-08
2.82934e-06
-9.01367e-10
2.8313e-06
-7.34559e-09
2.82692e-06
5.20106e-09
2.83015e-06
-8.35065e-10
2.82362e-06
1.5546e-08
2.82717e-06
1.31531e-08
2.81947e-06
3.46563e-08
2.82055e-06
4.04872e-08
2.79995e-06
7.41872e-08
2.79051e-06
8.49055e-08
1.13892e-07
2.76575e-06
2.96281e-06
-2.259e-07
2.97523e-06
1.36326e-07
2.96276e-06
-1.53946e-07
2.97339e-06
9.84509e-08
2.9627e-06
-1.17978e-07
2.9725e-06
5.21859e-08
2.96389e-06
-8.01571e-08
2.9716e-06
2.26426e-08
2.96489e-06
-5.30034e-08
2.97022e-06
4.73908e-09
2.96586e-06
-3.55211e-08
2.96874e-06
-3.67311e-09
2.96684e-06
-2.36714e-08
2.96762e-06
-6.3995e-09
2.9675e-06
-1.68914e-08
2.96689e-06
-5.92451e-09
2.96749e-06
-1.3754e-08
2.96633e-06
-3.58758e-09
2.96698e-06
-1.14007e-08
2.96538e-06
6.98672e-10
2.96559e-06
-7.55428e-09
2.96367e-06
7.11386e-09
2.96345e-06
-6.13991e-10
2.96026e-06
1.87421e-08
2.95859e-06
1.48179e-08
2.95605e-06
3.71943e-08
2.95334e-06
4.32054e-08
2.94231e-06
8.52099e-08
2.91683e-06
1.10384e-07
1.51814e-07
2.87891e-06
3.10444e-06
-2.15336e-07
3.1177e-06
1.23066e-07
3.10447e-06
-1.40717e-07
3.11562e-06
8.73092e-08
3.10447e-06
-1.06831e-07
3.1145e-06
4.21563e-08
3.10585e-06
-7.1509e-08
3.11341e-06
1.50804e-08
3.10705e-06
-4.66387e-08
3.1119e-06
-1.09987e-10
3.10804e-06
-3.16641e-08
3.11051e-06
-6.14177e-09
3.1088e-06
-2.19629e-08
3.10982e-06
-7.42125e-09
3.10877e-06
-1.58444e-08
3.10992e-06
-7.07039e-09
3.10779e-06
-1.16224e-08
3.11039e-06
-6.18637e-09
3.10583e-06
-6.83926e-09
3.11092e-06
-4.39448e-09
3.10294e-06
4.21162e-10
3.11064e-06
-5.83721e-10
3.10003e-06
1.00024e-08
3.10806e-06
1.0709e-08
3.09575e-06
2.71241e-08
3.09917e-06
3.37717e-08
3.08861e-06
5.3773e-08
3.12144e-06
5.23724e-08
3.16753e-06
6.42957e-08
5.96925e-08
3.25965e-06
3.2529e-06
-2.04331e-07
3.26695e-06
1.09024e-07
3.25306e-06
-1.26831e-07
3.2646e-06
7.57728e-08
3.25313e-06
-9.53686e-08
3.26321e-06
3.20756e-08
3.25473e-06
-6.30206e-08
3.2619e-06
7.9038e-09
3.25619e-06
-4.09266e-08
3.26013e-06
-4.04831e-09
3.25741e-06
-2.89427e-08
3.25861e-06
-7.33936e-09
3.25828e-06
-2.16326e-08
3.25777e-06
-6.91931e-09
3.25855e-06
-1.66165e-08
3.25728e-06
-5.80318e-09
3.25855e-06
-1.28903e-08
3.25632e-06
-3.96374e-09
3.25847e-06
-8.98727e-09
3.25455e-06
-4.77703e-10
3.25793e-06
-2.95361e-09
3.25184e-06
5.50563e-09
3.25558e-06
6.26688e-09
3.24841e-06
1.78769e-08
3.25229e-06
2.32385e-08
3.24607e-06
3.99944e-08
3.24755e-06
5.22887e-08
3.22683e-06
7.30977e-08
3.20327e-06
8.78596e-08
1.0153e-07
3.16143e-06
3.40851e-06
-1.92915e-07
3.42326e-06
9.42775e-08
3.40885e-06
-1.12417e-07
3.42063e-06
6.39885e-08
3.40902e-06
-8.37522e-08
3.41894e-06
2.21555e-08
3.41084e-06
-5.49279e-08
3.41736e-06
1.38379e-09
3.41264e-06
-3.62028e-08
3.41527e-06
-6.68038e-09
3.41409e-06
-2.77589e-08
3.41368e-06
-6.9274e-09
3.4149e-06
-2.28525e-08
3.41289e-06
-4.90894e-09
3.41518e-06
-1.89125e-08
3.41224e-06
-2.85741e-09
3.41542e-06
-1.60699e-08
3.4111e-06
3.50792e-10
3.41513e-06
-1.30195e-08
3.4095e-06
5.16036e-09
3.41449e-06
-7.95037e-09
3.40645e-06
1.35501e-08
3.4125e-06
2.09282e-10
3.40321e-06
2.71741e-08
3.40824e-06
1.82085e-08
3.40196e-06
4.62761e-08
3.40675e-06
4.74922e-08
3.38236e-06
9.74928e-08
3.35533e-06
1.14884e-07
1.46012e-07
3.31085e-06
3.57165e-06
-1.81151e-07
3.58697e-06
7.89551e-08
3.57222e-06
-9.76634e-08
3.58407e-06
5.21371e-08
3.57245e-06
-7.21358e-08
3.58208e-06
1.25309e-08
3.57437e-06
-4.72199e-08
3.58051e-06
-4.75769e-09
3.576e-06
-3.16977e-08
3.57887e-06
-9.54769e-09
3.5767e-06
-2.55874e-08
3.57832e-06
-8.54755e-09
3.57629e-06
-2.08261e-08
3.57887e-06
-7.48807e-09
3.57502e-06
-1.50564e-08
3.57995e-06
-7.79366e-09
3.57291e-06
-9.02548e-09
3.58151e-06
-8.2492e-09
3.57004e-06
-1.54678e-09
3.5822e-06
-7.00236e-09
3.56685e-06
7.39785e-09
3.58241e-06
-2.00923e-09
3.56369e-06
1.89283e-08
3.58011e-06
1.07595e-08
3.55977e-06
3.85422e-08
3.57e-06
3.6049e-08
3.55585e-06
6.1637e-08
3.60433e-06
4.90125e-08
3.65641e-06
6.28059e-08
5.81298e-08
3.74429e-06
3.74268e-06
-1.69123e-07
3.75841e-06
6.32215e-08
3.74358e-06
-8.28341e-08
3.75525e-06
4.04718e-08
3.74388e-06
-6.07699e-08
3.75287e-06
3.54504e-09
3.74597e-06
-4.03187e-08
3.75113e-06
-9.91912e-09
3.74778e-06
-2.83525e-08
3.74931e-06
-1.10736e-08
3.74889e-06
-2.51728e-08
3.74806e-06
-7.71227e-09
3.74971e-06
-2.2473e-08
3.74676e-06
-4.53957e-09
3.75072e-06
-1.90183e-08
3.7452e-06
-2.27071e-09
3.75149e-06
-1.53236e-08
3.7435e-06
-2.59934e-10
3.75177e-06
-9.81187e-09
3.74197e-06
2.79438e-09
3.75011e-06
-7.42655e-10
3.73944e-06
8.66309e-09
3.7469e-06
1.14651e-08
3.73728e-06
2.03801e-08
3.74511e-06
3.07151e-08
3.73824e-06
4.29154e-08
3.73796e-06
6.19221e-08
3.71466e-06
7.23117e-08
3.68423e-06
9.32359e-08
1.07351e-07
3.63501e-06
3.92197e-06
-1.569e-07
3.93791e-06
4.72751e-08
3.92335e-06
-6.8274e-08
3.9345e-06
2.93229e-08
3.92372e-06
-4.99916e-08
3.93164e-06
-4.37143e-09
3.92583e-06
-3.45079e-08
3.92995e-06
-1.40429e-08
3.9275e-06
-2.59028e-08
3.92837e-06
-1.19443e-08
3.92851e-06
-2.53136e-08
3.92704e-06
-6.24281e-09
3.92982e-06
-2.52522e-08
3.92506e-06
2.2193e-10
3.93138e-06
-2.53348e-08
3.92278e-06
6.33124e-09
3.93315e-06
-2.56947e-08
3.91993e-06
1.2956e-08
3.93458e-06
-2.44651e-08
3.91657e-06
2.08056e-08
3.93507e-06
-1.92399e-08
3.91333e-06
3.04014e-08
3.93386e-06
-9.05837e-09
3.91161e-06
4.26294e-08
3.93405e-06
8.26822e-09
3.91566e-06
6.13054e-08
3.93652e-06
4.10642e-08
3.89077e-06
1.18067e-07
3.8582e-06
1.25807e-07
1.55131e-07
3.81042e-06
4.10993e-06
-1.44584e-07
4.12587e-06
3.13377e-08
4.1119e-06
-5.43066e-08
4.12236e-06
1.88692e-08
4.11202e-06
-3.96547e-08
4.11943e-06
-1.17824e-08
4.11353e-06
-2.86069e-08
4.11877e-06
-1.92829e-08
4.11363e-06
-2.07637e-08
4.11929e-06
-1.76048e-08
4.11224e-06
-1.826e-08
4.1206e-06
-1.46043e-08
4.11018e-06
-1.48277e-08
4.12234e-06
-1.19428e-08
4.10812e-06
-1.11158e-08
4.12358e-06
-9.13003e-09
4.10632e-06
-8.43667e-09
4.12417e-06
-4.89365e-09
4.10464e-06
-4.92812e-09
4.12378e-06
1.66429e-09
4.1031e-06
1.43654e-09
4.12134e-06
1.21609e-08
4.10102e-06
1.12678e-08
4.11698e-06
2.66669e-08
4.09829e-06
2.69592e-08
4.11638e-06
4.32126e-08
4.10783e-06
4.96121e-08
4.15856e-06
6.73436e-08
4.21063e-06
7.37371e-08
8.50402e-08
4.28072e-06
4.30705e-06
-1.32335e-07
4.32261e-06
1.57836e-08
4.31013e-06
-4.18328e-08
4.31895e-06
1.00505e-08
4.31e-06
-3.07061e-08
4.31542e-06
-1.71953e-08
4.31126e-06
-2.44526e-08
4.31485e-06
-2.28723e-08
4.31123e-06
-1.71414e-08
4.3156e-06
-2.19757e-08
4.30993e-06
-1.25879e-08
4.31685e-06
-2.15246e-08
4.30803e-06
-6.00641e-09
4.31862e-06
-2.25386e-08
4.30566e-06
1.84684e-09
4.3201e-06
-2.3573e-08
4.30363e-06
8.04141e-09
4.32103e-06
-2.2302e-08
4.30157e-06
1.45345e-08
4.32082e-06
-1.7584e-08
4.29948e-06
2.27766e-08
4.31962e-06
-7.97897e-09
4.29706e-06
3.38251e-08
4.31527e-06
8.4595e-09
4.29331e-06
4.89142e-08
4.31254e-06
2.39907e-08
4.31078e-06
5.13672e-08
4.36168e-06
1.64441e-08
4.40998e-06
2.5441e-08
4.06938e-09
4.49095e-06
4.51379e-06
-1.20354e-07
4.52843e-06
1.14349e-09
4.51923e-06
-3.26283e-08
4.52493e-06
4.35122e-09
4.51771e-06
-2.34926e-08
4.52068e-06
-2.01625e-08
4.51866e-06
-2.2433e-08
4.51934e-06
-2.35533e-08
4.51962e-06
-1.7423e-08
4.51886e-06
-2.12147e-08
4.52075e-06
-1.44737e-08
4.51776e-06
-1.85319e-08
4.52164e-06
-9.88862e-09
4.51631e-06
-1.72098e-08
4.52247e-06
-4.31712e-09
4.51509e-06
-1.61875e-08
4.52278e-06
3.48333e-10
4.51396e-06
-1.3485e-08
4.52206e-06
6.43908e-09
4.51221e-06
-7.73361e-09
4.51941e-06
1.55793e-08
4.50857e-06
2.86205e-09
4.51336e-06
2.90329e-08
4.50467e-06
1.71468e-08
4.51238e-06
4.11997e-08
4.50517e-06
3.12055e-08
4.5088e-06
4.7733e-08
4.48028e-06
4.49692e-08
4.44263e-06
6.30881e-08
6.17401e-08
4.38496e-06
4.73037e-06
-1.08609e-07
4.74442e-06
-1.29072e-08
4.73618e-06
-2.43861e-08
4.74158e-06
-1.04835e-09
4.7347e-06
-1.66181e-08
4.73657e-06
-2.20252e-08
4.73533e-06
-2.1195e-08
4.73465e-06
-2.28721e-08
4.73737e-06
-2.01411e-08
4.73339e-06
-1.72418e-08
4.73924e-06
-2.0324e-08
4.73151e-06
-1.07957e-08
4.74078e-06
-1.91609e-08
4.72927e-06
-5.70304e-09
4.7424e-06
-1.74474e-08
4.72731e-06
-1.09949e-09
4.74327e-06
-1.56111e-08
4.72575e-06
4.03734e-09
4.74302e-06
-1.08294e-08
4.72449e-06
1.08001e-08
4.74158e-06
-1.51e-09
4.72313e-06
2.13076e-08
4.74026e-06
1.19044e-08
4.72316e-06
3.42418e-08
4.73698e-06
2.73859e-08
4.71472e-06
5.34602e-08
4.71182e-06
5.06389e-08
4.687e-06
6.97885e-08
4.68052e-06
6.95638e-08
9.41925e-08
4.64807e-06
4.95772e-06
-9.75351e-08
4.96926e-06
-2.44393e-08
4.96691e-06
-2.20415e-08
4.96586e-06
5.82989e-12
4.96581e-06
-1.65659e-08
4.96098e-06
-1.71997e-08
4.96383e-06
-2.40441e-08
4.96024e-06
-1.92793e-08
4.96456e-06
-2.44665e-08
4.96024e-06
-1.29231e-08
4.96515e-06
-2.52286e-08
4.95989e-06
-5.53606e-09
4.96528e-06
-2.45489e-08
4.95921e-06
3.67468e-10
4.96494e-06
-2.31819e-08
4.95908e-06
4.76318e-09
4.9643e-06
-2.08317e-08
4.95812e-06
1.02109e-08
4.96191e-06
-1.46192e-08
4.95458e-06
1.8138e-08
4.95648e-06
-3.41417e-09
4.94982e-06
2.79677e-08
4.9512e-06
1.05208e-08
4.94745e-06
3.79918e-08
4.94784e-06
2.70015e-08
4.94963e-06
5.16637e-08
4.94749e-06
5.27869e-08
4.91897e-06
9.83011e-08
4.87548e-06
1.13062e-07
1.30733e-07
4.83894e-06
5.19565e-06
-8.68733e-08
5.20677e-06
-3.55595e-08
5.20238e-06
-1.76467e-08
5.20669e-06
-4.30737e-09
5.19787e-06
-7.74287e-09
5.20466e-06
-2.39912e-08
5.19525e-06
-1.46335e-08
5.20601e-06
-3.00361e-08
5.19343e-06
-1.18847e-08
5.20807e-06
-2.75626e-08
5.19131e-06
-8.47709e-09
5.2098e-06
-2.40201e-08
5.18909e-06
-3.83809e-09
5.21127e-06
-2.18193e-08
5.18754e-06
5.57108e-10
5.21152e-06
-1.92258e-08
5.18705e-06
3.64032e-09
5.21091e-06
-1.36516e-08
5.18691e-06
9.38279e-09
5.20974e-06
-4.685e-09
5.18718e-06
1.91424e-08
5.20617e-06
8.97748e-09
5.18277e-06
3.39191e-08
5.19337e-06
2.73966e-08
5.17311e-06
4.72551e-08
5.18479e-06
3.99892e-08
5.19064e-06
4.69373e-08
5.26281e-06
2.61299e-08
5.34977e-06
2.61002e-08
2.68151e-08
5.45369e-06
5.44553e-06
-7.72132e-08
5.4519e-06
-4.19349e-08
5.45582e-06
-2.15592e-08
5.4498e-06
1.70655e-09
5.45531e-06
-1.32535e-08
5.44581e-06
-1.4489e-08
5.45232e-06
-2.1142e-08
5.44542e-06
-2.31358e-08
5.45172e-06
-1.81834e-08
5.44654e-06
-2.23858e-08
5.45136e-06
-1.32984e-08
5.44736e-06
-2.00184e-08
5.45039e-06
-6.86918e-09
5.44668e-06
-1.81115e-08
5.44882e-06
-1.58023e-09
5.44461e-06
-1.50188e-08
5.44554e-06
2.7123e-09
5.44232e-06
-1.04332e-08
5.44279e-06
8.9212e-09
5.43917e-06
-1.07317e-09
5.43996e-06
1.83606e-08
5.43571e-06
1.32243e-08
5.43604e-06
3.35912e-08
5.43399e-06
2.94459e-08
5.43519e-06
4.60531e-08
5.43445e-06
4.07314e-08
5.42381e-06
5.75792e-08
5.39752e-06
5.24193e-08
5.35899e-06
6.46244e-08
6.47004e-08
5.32111e-06
5.70689e-06
-6.81424e-08
5.71257e-06
-4.76218e-08
5.71468e-06
-2.36698e-08
5.71507e-06
1.31671e-09
5.71462e-06
-1.28004e-08
5.71012e-06
-9.98892e-09
5.71064e-06
-2.16603e-08
5.70677e-06
-1.92693e-08
5.7114e-06
-2.28074e-08
5.70723e-06
-1.82234e-08
5.71298e-06
-1.90413e-08
5.70678e-06
-1.38255e-08
5.7132e-06
-1.32838e-08
5.70557e-06
-1.04871e-08
5.71322e-06
-9.22454e-09
5.70478e-06
-6.57744e-09
5.71287e-06
-5.38185e-09
5.70282e-06
-3.80195e-10
5.70905e-06
2.69128e-09
5.6993e-06
8.67907e-09
5.70334e-06
1.43189e-08
5.69608e-06
2.04784e-08
5.70107e-06
2.8607e-08
5.69399e-06
3.65261e-08
5.69424e-06
4.58046e-08
5.68175e-06
5.32211e-08
5.67684e-06
6.24872e-08
5.65968e-06
6.95766e-08
5.64473e-06
7.95777e-08
8.7619e-08
5.62181e-06
5.98101e-06
-5.99588e-08
5.98152e-06
-4.81337e-08
5.98873e-06
-3.08832e-08
5.98733e-06
2.71806e-09
5.98983e-06
-1.52998e-08
5.98128e-06
-1.43463e-09
5.98727e-06
-2.76526e-08
5.9784e-06
-1.04021e-08
5.98788e-06
-3.22825e-08
5.97865e-06
-8.99909e-09
5.98816e-06
-2.85499e-08
5.97895e-06
-4.6088e-09
5.98722e-06
-2.15581e-08
5.97884e-06
-2.10541e-09
5.98451e-06
-1.48987e-08
5.97684e-06
1.09618e-09
5.97939e-06
-7.93494e-09
5.97356e-06
5.45396e-09
5.97602e-06
2.28783e-10
5.9712e-06
1.34993e-08
5.97398e-06
1.15378e-08
5.9694e-06
2.5064e-08
5.97289e-06
2.51149e-08
5.96783e-06
4.15887e-08
5.9673e-06
4.63325e-08
5.95536e-06
6.51538e-08
5.9492e-06
6.86506e-08
5.93227e-06
8.65063e-08
5.91957e-06
9.22775e-08
1.02634e-07
5.90456e-06
6.26822e-06
-5.26921e-08
6.26533e-06
-4.52431e-08
6.27589e-06
-4.14464e-08
6.27067e-06
7.94203e-09
6.27832e-06
-2.29518e-08
6.26595e-06
1.0934e-08
6.27531e-06
-3.70064e-08
6.26411e-06
7.92733e-10
6.27533e-06
-4.34979e-08
6.26441e-06
1.91394e-09
6.2753e-06
-3.94345e-08
6.26463e-06
6.06547e-09
6.27446e-06
-3.1395e-08
6.26421e-06
8.14625e-09
6.27312e-06
-2.38045e-08
6.26254e-06
1.16696e-08
6.26969e-06
-1.50795e-08
6.25896e-06
1.61842e-08
6.26423e-06
-5.03949e-09
6.25668e-06
2.10497e-08
6.26019e-06
8.02353e-09
6.25375e-06
3.15035e-08
6.2557e-06
2.31665e-08
6.25336e-06
4.39307e-08
6.26089e-06
3.87964e-08
6.25681e-06
6.92399e-08
6.24785e-06
7.76078e-08
6.21311e-06
1.2125e-07
6.16443e-06
1.40951e-07
1.29312e-07
6.13776e-06
6.56772e-06
-4.49402e-08
6.577e-06
-5.4526e-08
6.5614e-06
-2.58453e-08
6.58064e-06
-1.12979e-08
6.56087e-06
-3.18668e-09
6.58157e-06
-9.75934e-09
6.55945e-06
-1.48928e-08
6.58126e-06
-2.10135e-08
6.55922e-06
-2.14603e-08
6.58133e-06
-2.01961e-08
6.55914e-06
-1.72417e-08
6.58071e-06
-1.55e-08
6.55929e-06
-9.98091e-09
6.57956e-06
-1.21183e-08
6.5599e-06
-4.15141e-09
6.57832e-06
-6.75056e-09
6.56056e-06
2.68002e-09
6.57562e-06
1.1322e-09
6.55891e-06
1.16689e-08
6.56789e-06
1.20708e-08
6.55519e-06
2.0724e-08
6.56186e-06
2.48272e-08
6.54861e-06
3.64223e-08
6.55083e-06
4.17083e-08
6.5421e-06
4.75198e-08
6.5697e-06
4.16476e-08
6.60403e-06
4.32752e-08
6.68559e-06
3.96868e-08
6.78574e-06
4.08043e-08
5.85084e-08
6.85654e-06
6.88453e-06
-3.96803e-08
6.87769e-06
-4.76854e-08
6.89005e-06
-3.82079e-08
6.8818e-06
-3.04536e-09
6.89345e-06
-1.48369e-08
6.88233e-06
1.3642e-09
6.88943e-06
-2.19989e-08
6.88098e-06
-1.25634e-08
6.88712e-06
-2.75954e-08
6.88044e-06
-1.35218e-08
6.88687e-06
-2.36705e-08
6.88021e-06
-8.83757e-09
6.886e-06
-1.57695e-08
6.8777e-06
-3.81528e-09
6.88227e-06
-8.7273e-09
6.87371e-06
1.80696e-09
6.8781e-06
-1.70599e-09
6.87113e-06
8.10224e-09
6.87458e-06
8.21823e-09
6.86947e-06
1.71813e-08
6.87231e-06
1.78877e-08
6.87266e-06
2.4477e-08
6.88614e-06
2.294e-08
6.89869e-06
2.91606e-08
6.90999e-06
3.62114e-08
6.89655e-06
5.50898e-08
6.86932e-06
7.0503e-08
6.81695e-06
9.20653e-08
6.75088e-06
1.06869e-07
8.17169e-08
6.72767e-06
7.21243e-06
-3.2972e-08
7.22431e-06
-5.9565e-08
7.2018e-06
-1.56973e-08
7.2265e-06
-2.77478e-08
7.20217e-06
9.49718e-09
7.22797e-06
-2.44443e-08
7.20172e-06
4.25844e-09
7.22709e-06
-3.79404e-08
7.20286e-06
-3.36466e-09
7.2254e-06
-3.60609e-08
7.2039e-06
-2.16887e-09
7.22343e-06
-2.83698e-08
7.20487e-06
2.78966e-09
7.22199e-06
-2.09308e-08
7.20633e-06
6.92973e-09
7.21798e-06
-9.83955e-09
7.20273e-06
1.35407e-08
7.21081e-06
2.82456e-11
7.19877e-06
2.02497e-08
7.20548e-06
1.04741e-08
7.19735e-06
2.60193e-08
7.20231e-06
1.95156e-08
7.19016e-06
3.50885e-08
7.19061e-06
2.87171e-08
7.19074e-06
3.60756e-08
7.22222e-06
2.36088e-08
7.26923e-06