/*--------------------------------*- C++ -*----------------------------------*\
| =========                 |                                                 |
| \\      /  F ield         | OpenFOAM: The Open Source CFD Toolbox           |
|  \\    /   O peration     | Version:  v2006                                 |
|   \\  /    A nd           | Website:  www.openfoam.com                      |
|    \\/     M anipulation  |                                                 |
\*---------------------------------------------------------------------------*/
FoamFile
{
    version     2.0;
    format      ascii;
    class       volVectorField;
    location    "1.2";
    object      U;
}
// * * * * * * * * * * * * * * * * * * * * * * * * * * * * * * * * * * * * * //

dimensions      [0 1 -1 0 0 0 0];


internalField   nonuniform List<vector> 
26400
(
(0.909085 -0.00478 0)
(1.0919 0.00435665 0)
(0.912976 -0.00420887 0)
(1.09143 0.00396857 0)
(0.919554 -0.0039242 0)
(1.09201 0.00340393 0)
(0.925077 -0.00346433 0)
(1.09276 0.00278198 0)
(0.929941 -0.00314423 0)
(1.09323 0.0023427 0)
(0.934278 -0.00286506 0)
(1.09353 0.00207221 0)
(0.937877 -0.00253978 0)
(1.09398 0.00181981 0)
(0.940794 -0.00225156 0)
(1.09465 0.00150929 0)
(0.942967 -0.00205852 0)
(1.09553 0.00118314 0)
(0.944222 -0.00190142 0)
(1.09665 0.000893695 0)
(0.944368 -0.00173894 0)
(1.09812 0.000659106 0)
(0.943176 -0.00153677 0)
(1.10003 0.000464573 0)
(0.940333 -0.00124661 0)
(1.10238 0.00027417 0)
(0.935347 -0.000681644 0)
(1.10467 2.36398e-05 0)
(0.926888 0.00111064 0)
(1.10582 0.000367358 0)
(0.915977 -0.00482116 0)
(1.08607 0.00435964 0)
(0.92237 -0.00427229 0)
(1.08557 0.00396499 0)
(0.930603 -0.00400102 0)
(1.0855 0.00340381 0)
(0.937521 -0.00354671 0)
(1.08516 0.00278455 0)
(0.943704 -0.0032259 0)
(1.08424 0.00234813 0)
(0.949487 -0.00294492 0)
(1.08281 0.00208216 0)
(0.954857 -0.0026203 0)
(1.08105 0.00183314 0)
(0.960015 -0.00233301 0)
(1.07888 0.00152682 0)
(0.965076 -0.00213812 0)
(1.07608 0.001209 0)
(0.97015 -0.00197603 0)
(1.0724 0.0009336 0)
(0.975459 -0.00180521 0)
(1.06749 0.000721377 0)
(0.981309 -0.00158553 0)
(1.06088 0.0005558 0)
(0.988037 -0.00125017 0)
(1.05186 0.000378043 0)
(0.995855 -0.000557614 0)
(1.03917 0.000212892 0)
(1.00445 0.00202097 0)
(1.02017 0.00151586 0)
(0.928159 -0.00486818 0)
(1.07427 0.00433776 0)
(0.937464 -0.0043332 0)
(1.07354 0.00393577 0)
(0.947774 -0.00406499 0)
(1.07239 0.00337816 0)
(0.9565 -0.00360578 0)
(1.07046 0.00276031 0)
(0.964254 -0.00327293 0)
(1.06766 0.00231971 0)
(0.971539 -0.00297592 0)
(1.06415 0.00204522 0)
(0.978463 -0.00263305 0)
(1.06012 0.00178109 0)
(0.985166 -0.00232016 0)
(1.05556 0.00145263 0)
(0.991637 -0.00208633 0)
(1.05042 0.00110237 0)
(0.997818 -0.00186719 0)
(1.04477 0.000777767 0)
(1.00362 -0.00161575 0)
(1.03872 0.000495498 0)
(1.00884 -0.00129294 0)
(1.03246 0.000249252 0)
(1.01309 -0.000854994 0)
(1.02619 3.2238e-05 0)
(1.01572 -0.000140584 0)
(1.01999 5.63601e-05 0)
(1.01553 0.00216737 0)
(1.01427 0.00376333 0)
(0.943471 -0.00490145 0)
(1.05833 0.00426407 0)
(0.954302 -0.00436749 0)
(1.05724 0.0038581 0)
(0.965651 -0.00408586 0)
(1.05516 0.00330025 0)
(0.975198 -0.00360725 0)
(1.05208 0.00268039 0)
(0.983338 -0.00325155 0)
(1.04828 0.00222946 0)
(0.990624 -0.00292893 0)
(1.04405 0.0019383 0)
(0.997174 -0.0025589 0)
(1.0397 0.001654 0)
(1.00298 -0.00221551 0)
(1.03535 0.00130518 0)
(1.00789 -0.00194804 0)
(1.03111 0.000935637 0)
(1.01182 -0.00169551 0)
(1.02718 0.000595871 0)
(1.01471 -0.00141388 0)
(1.0237 0.000309218 0)
(1.01647 -0.00106984 0)
(1.02068 8.12492e-05 0)
(1.017 -0.000609617 0)
(1.01801 -6.62734e-05 0)
(1.01611 0.000145525 0)
(1.01525 0.000237717 0)
(1.01347 0.0025429 0)
(1.01242 0.00593932 0)
(0.959246 -0.00491304 0)
(1.04134 0.00415042 0)
(0.969513 -0.00437307 0)
(1.04002 0.00374282 0)
(0.980149 -0.00406986 0)
(1.03766 0.00318286 0)
(0.988887 -0.00356728 0)
(1.03452 0.00256369 0)
(0.99583 -0.00318945 0)
(1.03107 0.00210711 0)
(1.00157 -0.00284636 0)
(1.02772 0.00180644 0)
(1.0063 -0.00245823 0)
(1.02471 0.00151512 0)
(1.00999 -0.00209774 0)
(1.02206 0.00116517 0)
(1.01258 -0.00181494 0)
(1.01978 0.000799479 0)
(1.01415 -0.00155097 0)
(1.01791 0.000468953 0)
(1.01487 -0.00126171 0)
(1.01637 0.00020117 0)
(1.01483 -0.000916419 0)
(1.01501 9.67012e-06 0)
(1.01407 -0.000498001 0)
(1.01352 -2.14983e-05 0)
(1.0125 2.06186e-05 0)
(1.01149 0.00109334 0)
(1.00997 0.00164835 0)
(1.00926 0.00843331 0)
(0.973103 -0.00490101 0)
(1.02625 0.00402332 0)
(0.981097 -0.0043554 0)
(1.02504 0.00361615 0)
(0.989622 -0.00403134 0)
(1.02307 0.00305503 0)
(0.996378 -0.00350918 0)
(1.02072 0.00244319 0)
(1.00129 -0.00311656 0)
(1.01843 0.0019888 0)
(1.00502 -0.00276234 0)
(1.01651 0.00168656 0)
(1.00786 -0.00236546 0)
(1.01505 0.00139689 0)
(1.00984 -0.00199523 0)
(1.01389 0.00105354 0)
(1.01096 -0.00170206 0)
(1.01292 0.000695813 0)
(1.01139 -0.0014294 0)
(1.01209 0.00037536 0)
(1.01132 -0.0011348 0)
(1.01131 0.00012573 0)
(1.01084 -0.000788069 0)
(1.01042 -3.26078e-05 0)
(1.00991 -0.000394038 0)
(1.0092 1.45787e-05 0)
(1.0084 0.000208128 0)
(1.00734 0.00105328 0)
(1.00629 0.00260056 0)
(1.00559 0.00619423 0)
(0.983686 -0.00486804 0)
(1.01478 0.00390449 0)
(0.988699 -0.00432153 0)
(1.01394 0.00349927 0)
(0.994656 -0.00398159 0)
(1.01269 0.00293762 0)
(0.999189 -0.00344626 0)
(1.01133 0.00233661 0)
(1.00217 -0.0030447 0)
(1.01014 0.00188645 0)
(1.00431 -0.00268395 0)
(1.0093 0.00158211 0)
(1.0059 -0.0022803 0)
(1.00881 0.00129113 0)
(1.00696 -0.00189826 0)
(1.00844 0.000947918 0)
(1.00747 -0.00158787 0)
(1.00803 0.000586335 0)
(1.00754 -0.00129472 0)
(1.00758 0.000257807 0)
(1.0073 -0.000976508 0)
(1.00703 2.90983e-07 0)
(1.00677 -0.000592098 0)
(1.00628 -0.000163681 0)
(1.00586 -0.000138221 0)
(1.00515 -0.000128356 0)
(1.00441 0.000751606 0)
(1.00348 0.00058184 0)
(1.00246 0.00408438 0)
(1.00205 0.00465894 0)
(0.990826 -0.00481917 0)
(1.00718 0.00380357 0)
(0.993109 -0.00427653 0)
(1.00673 0.00339997 0)
(0.996861 -0.00392567 0)
(1.00611 0.00283623 0)
(0.999598 -0.00338175 0)
(1.0055 0.00224454 0)
(1.00121 -0.00297355 0)
(1.00499 0.00179587 0)
(1.00236 -0.00260762 0)
(1.00469 0.00148608 0)
(1.00327 -0.00219832 0)
(1.00462 0.00119117 0)
(1.0039 -0.00180638 0)
(1.00455 0.00084782 0)
(1.00417 -0.00148339 0)
(1.00434 0.000487761 0)
(1.00413 -0.0011815 0)
(1.00402 0.00016676 0)
(1.00384 -0.000867881 0)
(1.00354 -6.71291e-05 0)
(1.00329 -0.000512068 0)
(1.00284 -0.000153613 0)
(1.00238 -0.000132719 0)
(1.00176 0.000115187 0)
(1.00097 0.000274663 0)
(1.00022 0.00184988 0)
(0.999278 0.00258942 0)
(0.99907 0.0102015 0)
(0.995162 -0.00475896 0)
(1.00267 0.00371899 0)
(0.995458 -0.00422242 0)
(1.0025 0.00331486 0)
(0.997702 -0.00386392 0)
(1.00228 0.00274594 0)
(0.999256 -0.00331363 0)
(1.00208 0.0021595 0)
(1.00004 -0.00289839 0)
(1.00187 0.00170799 0)
(1.00063 -0.00252614 0)
(1.00176 0.00138881 0)
(1.00116 -0.00211014 0)
(1.0018 0.00108657 0)
(1.00155 -0.00170796 0)
(1.00182 0.000741408 0)
(1.00168 -0.0013738 0)
(1.00168 0.000385216 0)
(1.00157 -0.00106658 0)
(1.00139 7.74706e-05 0)
(1.00124 -0.00074619 0)
(1.00094 -0.000140645 0)
(1.00067 -0.000406474 0)
(1.00023 -0.000181196 0)
(0.999761 -3.12121e-05 0)
(0.99912 0.000157944 0)
(0.998445 0.000382707 0)
(0.997636 0.00202567 0)
(0.997246 0.00231038 0)
(0.996745 0.01001 0)
(0.997587 -0.0046902 0)
(1.00022 0.00364338 0)
(0.996665 -0.00415931 0)
(1.00018 0.00323613 0)
(0.998033 -0.00379507 0)
(1.00017 0.00265912 0)
(0.998897 -0.00323917 0)
(1.00014 0.002074 0)
(0.999225 -0.00281535 0)
(1.00004 0.00161605 0)
(0.999501 -0.00243445 0)
(0.99997 0.00128392 0)
(0.999779 -0.00200896 0)
(1.00002 0.000969244 0)
(0.999998 -0.00159205 0)
(1.00004 0.000614628 0)
(1.00004 -0.00123911 0)
(0.999915 0.000251516 0)
(0.999874 -0.00091271 0)
(0.999635 -6.03402e-05 0)
(0.999509 -0.000567087 0)
(0.999171 -0.000281649 0)
(0.998909 -0.000194019 0)
(0.998442 -0.000335279 0)
(0.997981 0.00028113 0)
(0.997317 -0.000121842 0)
(0.996686 0.00136833 0)
(0.995882 0.000747943 0)
(0.995672 0.00390464 0)
(0.99535 0.00262418 0)
(0.998866 -0.00461419 0)
(0.998951 0.00356897 0)
(0.997286 -0.00408672 0)
(0.998964 0.00315692 0)
(0.998194 -0.00371802 0)
(0.999048 0.00257019 0)
(0.998684 -0.00315723 0)
(0.9991 0.00198502 0)
(0.998766 -0.0027251 0)
(0.999032 0.0015215 0)
(0.99886 -0.0023373 0)
(0.998952 0.00118044 0)
(0.998976 -0.00190776 0)
(0.998974 0.00086107 0)
(0.999071 -0.00148792 0)
(0.998984 0.000512154 0)
(0.999038 -0.00113662 0)
(0.99886 0.00016797 0)
(0.998832 -0.000823196 0)
(0.998579 -0.000108867 0)
(0.998436 -0.000518491 0)
(0.998105 -0.000262858 0)
(0.997808 -0.000191186 0)
(0.997359 -0.000231981 0)
(0.996855 0.000257796 0)
(0.99625 0.000110038 0)
(0.995535 0.00134406 0)
(0.994882 0.000994519 0)
(0.994347 0.00401304 0)
(0.994812 0.00164076 0)
(0.999511 -0.00453136 0)
(0.998325 0.00348996 0)
(0.997604 -0.00400381 0)
(0.998349 0.00307213 0)
(0.998284 -0.0036309 0)
(0.99848 0.00247381 0)
(0.998579 -0.00306452 0)
(0.998569 0.0018861 0)
(0.998533 -0.00262119 0)
(0.998516 0.00141353 0)
(0.998526 -0.00222155 0)
(0.99842 0.00105854 0)
(0.998543 -0.00178112 0)
(0.998415 0.000726493 0)
(0.998558 -0.00134964 0)
(0.998408 0.000371275 0)
(0.99848 -0.000985748 0)
(0.998279 2.92572e-05 0)
(0.998252 -0.000659703 0)
(0.997993 -0.000243895 0)
(0.997842 -0.000354637 0)
(0.997506 -0.000369901 0)
(0.997203 -2.98803e-05 0)
(0.996744 -0.000291563 0)
(0.996247 0.000399811 0)
(0.995634 0.000185029 0)
(0.994951 0.001258 0)
(0.994344 0.00163354 0)
(0.993826 0.00393966 0)
(0.994785 0.00610087 0)
(0.999823 -0.00444198 0)
(0.998033 0.00340324 0)
(0.997763 -0.00391035 0)
(0.998055 0.00298001 0)
(0.99833 -0.00353418 0)
(0.998213 0.00237002 0)
(0.998525 -0.00296369 0)
(0.998323 0.00178098 0)
(0.998417 -0.00251115 0)
(0.998279 0.00130335 0)
(0.998359 -0.00210502 0)
(0.998174 0.000942741 0)
(0.998318 -0.00166405 0)
(0.99815 0.000611711 0)
(0.998286 -0.00123817 0)
(0.998131 0.000270083 0)
(0.998182 -0.000888318 0)
(0.998 -3.98995e-05 0)
(0.997941 -0.000595398 0)
(0.997712 -0.000257574 0)
(0.997527 -0.000338892 0)
(0.997221 -0.000297966 0)
(0.996884 -7.19852e-05 0)
(0.996453 -8.02686e-05 0)
(0.995936 0.00024179 0)
(0.995349 0.00060564 0)
(0.994698 0.000978285 0)
(0.994173 0.00242809 0)
(0.9939 0.00363768 0)
(0.994797 0.0102906 0)
(0.999966 -0.00434584 0)
(0.997909 0.0033064 0)
(0.997839 -0.00380499 0)
(0.997929 0.00287799 0)
(0.998351 -0.00342532 0)
(0.998104 0.00225467 0)
(0.998497 -0.00284995 0)
(0.998226 0.00166269 0)
(0.998362 -0.00238641 0)
(0.998188 0.00117872 0)
(0.99828 -0.00197127 0)
(0.998079 0.000810129 0)
(0.998209 -0.00152628 0)
(0.998043 0.000476146 0)
(0.99815 -0.00110055 0)
(0.998015 0.00014306 0)
(0.998034 -0.000758469 0)
(0.99788 -0.00014723 0)
(0.997793 -0.000488569 0)
(0.99759 -0.000321007 0)
(0.997384 -0.000254078 0)
(0.997095 -0.00031779 0)
(0.996752 8.07474e-06 0)
(0.996318 -6.78371e-05 0)
(0.99583 0.000431519 0)
(0.995232 0.000609133 0)
(0.994664 0.00147365 0)
(0.994177 0.00235384 0)
(0.994419 0.00397432 0)
(0.995116 0.00643037 0)
(1.00003 -0.00424287 0)
(0.997863 0.00319835 0)
(0.997881 -0.00368737 0)
(0.997881 0.00276563 0)
(0.998364 -0.00330463 0)
(0.998067 0.00212851 0)
(0.998488 -0.00272582 0)
(0.998195 0.00153513 0)
(0.998341 -0.00225356 0)
(0.998162 0.00104797 0)
(0.99825 -0.00183297 0)
(0.998053 0.000677104 0)
(0.998162 -0.00139074 0)
(0.998013 0.000348789 0)
(0.998087 -0.000977186 0)
(0.997982 4.07099e-05 0)
(0.997963 -0.000653607 0)
(0.997849 -0.00021617 0)
(0.99772 -0.000415645 0)
(0.997562 -0.000338752 0)
(0.997314 -0.000213073 0)
(0.997072 -0.000289894 0)
(0.996687 4.69588e-05 0)
(0.996315 -6.64167e-05 0)
(0.995781 0.000669782 0)
(0.995282 0.000551383 0)
(0.994681 0.00204725 0)
(0.994308 0.00225382 0)
(0.994235 0.00458894 0)
(0.995575 0.00285964 0)
(1.00006 -0.00413264 0)
(0.997851 0.00307762 0)
(0.997909 -0.00355607 0)
(0.997864 0.00264099 0)
(0.998379 -0.00317018 0)
(0.998056 0.00198869 0)
(0.998496 -0.00258822 0)
(0.998184 0.00139359 0)
(0.998348 -0.00210694 0)
(0.998152 0.000903897 0)
(0.998256 -0.0016829 0)
(0.998041 0.000533399 0)
(0.998163 -0.00124589 0)
(0.997995 0.000215384 0)
(0.998085 -0.000853295 0)
(0.997958 -6.3879e-05 0)
(0.997961 -0.000563385 0)
(0.99782 -0.000271164 0)
(0.997726 -0.000368901 0)
(0.997531 -0.0003276 0)
(0.997331 -0.000214224 0)
(0.997043 -0.000197381 0)
(0.996715 3.55116e-06 0)
(0.996309 0.000174477 0)
(0.995837 0.000517539 0)
(0.99533 0.00101413 0)
(0.994824 0.00179573 0)
(0.994465 0.00305737 0)
(0.994414 0.00480362 0)
(0.996242 0.0071717 0)
(1.00007 -0.0040156 0)
(0.997857 0.00294463 0)
(0.997927 -0.00341195 0)
(0.997866 0.00250632 0)
(0.998387 -0.0030249 0)
(0.998064 0.00184049 0)
(0.9985 -0.00244407 0)
(0.998192 0.00124857 0)
(0.998353 -0.00196006 0)
(0.998161 0.000765207 0)
(0.998262 -0.00154145 0)
(0.998052 0.000404124 0)
(0.998166 -0.00112263 0)
(0.998006 0.000114904 0)
(0.998084 -0.000769902 0)
(0.997966 -0.000119416 0)
(0.99796 -0.000544587 0)
(0.997827 -0.000248725 0)
(0.99773 -0.000412083 0)
(0.997539 -0.000224409 0)
(0.997344 -0.00030983 0)
(0.997057 -1.3349e-05 0)
(0.996748 -0.00014518 0)
(0.996337 0.000531154 0)
(0.995908 0.000266468 0)
(0.995416 0.0016108 0)
(0.994998 0.00143168 0)
(0.994735 0.00390224 0)
(0.994927 0.00489631 0)
(0.996462 0.0117186 0)
(1.00007 -0.00388986 0)
(0.99788 0.00279569 0)
(0.997937 -0.00325114 0)
(0.997886 0.00235597 0)
(0.998387 -0.00286246 0)
(0.998091 0.0016755 0)
(0.998498 -0.00228287 0)
(0.99822 0.00108674 0)
(0.99835 -0.0017965 0)
(0.99819 0.000610591 0)
(0.99826 -0.00138269 0)
(0.998083 0.000262557 0)
(0.998164 -0.00098818 0)
(0.998036 3.82175e-06 0)
(0.998082 -0.000658841 0)
(0.997992 -0.000192366 0)
(0.997963 -0.000471756 0)
(0.997849 -0.000278826 0)
(0.997741 -0.000359074 0)
(0.997559 -0.000236628 0)
(0.997368 -0.000230901 0)
(0.99708 -5.14851e-05 0)
(0.996798 4.38085e-05 0)
(0.996379 0.000382953 0)
(0.996006 0.000709536 0)
(0.995514 0.00140791 0)
(0.995201 0.0022193 0)
(0.995048 0.00349959 0)
(0.995804 0.0049585 0)
(0.996888 0.0069665 0)
(1.00006 -0.00375688 0)
(0.997907 0.00263315 0)
(0.997949 -0.00307669 0)
(0.997911 0.00219337 0)
(0.998389 -0.00268866 0)
(0.998125 0.00149844 0)
(0.998498 -0.00211329 0)
(0.998257 0.000915793 0)
(0.998349 -0.00162885 0)
(0.998231 0.000450448 0)
(0.998259 -0.00122844 0)
(0.998128 0.000124842 0)
(0.998161 -0.000885714 0)
(0.998084 -9.84956e-05 0)
(0.998076 -0.000608027 0)
(0.998039 -0.000237103 0)
(0.997956 -0.000455115 0)
(0.997897 -0.000276231 0)
(0.997736 -0.000351822 0)
(0.997613 -0.000218668 0)
(0.997367 -0.000184081 0)
(0.997152 -7.71014e-05 0)
(0.996807 0.000215238 0)
(0.996491 0.000253613 0)
(0.996061 0.00110448 0)
(0.99571 0.00125668 0)
(0.995345 0.00293961 0)
(0.995261 0.00329202 0)
(0.995554 0.00511739 0)
(0.997425 0.00275115 0)
(1.00007 -0.00362137 0)
(0.997924 0.00246461 0)
(0.997974 -0.00289667 0)
(0.997921 0.00203465 0)
(0.998408 -0.00251725 0)
(0.99814 0.00133622 0)
(0.998521 -0.00196089 0)
(0.99827 0.000778418 0)
(0.998376 -0.00149738 0)
(0.998241 0.000348967 0)
(0.998292 -0.00113113 0)
(0.998136 6.90858e-05 0)
(0.998198 -0.000801154 0)
(0.998089 -0.000116141 0)
(0.998118 -0.000587253 0)
(0.998038 -0.000200064 0)
(0.998004 -0.000483807 0)
(0.997892 -0.000188295 0)
(0.997792 -0.000413522 0)
(0.997612 -7.94687e-05 0)
(0.997428 -0.000257052 0)
(0.997167 0.00014186 0)
(0.996885 7.06945e-05 0)
(0.996547 0.000622382 0)
(0.996199 0.000880338 0)
(0.995854 0.0017937 0)
(0.995587 0.00264511 0)
(0.995485 0.00424741 0)
(0.995738 0.00577936 0)
(0.99823 0.00769073 0)
(1.00007 -0.00345948 0)
(0.997952 0.00225127 0)
(0.997993 -0.00267025 0)
(0.99794 0.0018162 0)
(0.998418 -0.00228524 0)
(0.998165 0.00109588 0)
(0.998533 -0.00172916 0)
(0.998294 0.000536571 0)
(0.998391 -0.00126299 0)
(0.998264 0.000117802 0)
(0.998309 -0.000924593 0)
(0.998163 -0.00013197 0)
(0.998217 -0.000639865 0)
(0.998113 -0.000266128 0)
(0.998139 -0.000475374 0)
(0.998059 -0.000288852 0)
(0.998028 -0.000432828 0)
(0.997914 -0.000213596 0)
(0.997821 -0.00043391 0)
(0.997641 -1.70276e-05 0)
(0.997469 -0.000385595 0)
(0.997204 0.000408961 0)
(0.996951 -0.000156402 0)
(0.996623 0.00118484 0)
(0.996325 0.000533722 0)
(0.996022 0.00253295 0)
(0.995862 0.00212846 0)
(0.995875 0.00529426 0)
(0.996316 0.00624283 0)
(0.998127 0.0129789 0)
(1.00006 -0.0033307 0)
(0.998003 0.00208757 0)
(0.997995 -0.00249598 0)
(0.997984 0.0016815 0)
(0.998408 -0.00214246 0)
(0.998216 0.000979239 0)
(0.998525 -0.00163614 0)
(0.998346 0.000480045 0)
(0.998385 -0.00123337 0)
(0.998314 0.000136671 0)
(0.998309 -0.000971037 0)
(0.99821 -3.90604e-05 0)
(0.998222 -0.000807112 0)
(0.998157 -8.22437e-05 0)
(0.998151 -0.000710064 0)
(0.998096 -5.80583e-05 0)
(0.998048 -0.000669145 0)
(0.997945 1.0684e-06 0)
(0.997852 -0.000607911 0)
(0.997669 0.000113663 0)
(0.997526 -0.000431796 0)
(0.997247 0.00039025 0)
(0.997047 5.44747e-05 0)
(0.996701 0.00102375 0)
(0.996477 0.00101693 0)
(0.99618 0.00235044 0)
(0.996163 0.00298645 0)
(0.99635 0.00475165 0)
(0.997409 0.00576645 0)
(0.998408 0.0070665 0)
(1.00004 -0.00313158 0)
(0.998063 0.00181192 0)
(0.998001 -0.00220873 0)
(0.998035 0.00140216 0)
(0.998402 -0.00184441 0)
(0.998277 0.000675438 0)
(0.998522 -0.00134023 0)
(0.998408 0.000181789 0)
(0.998384 -0.000920527 0)
(0.998376 -0.000151299 0)
(0.998309 -0.000643767 0)
(0.998273 -0.000331492 0)
(0.998224 -0.000433666 0)
(0.998221 -0.000415363 0)
(0.99815 -0.000255161 0)
(0.998163 -0.000491838 0)
(0.998043 -8.29886e-05 0)
(0.99802 -0.000562248 0)
(0.997844 0.000159042 0)
(0.997763 -0.000596885 0)
(0.997518 0.000523427 0)
(0.997374 -0.000508749 0)
(0.997063 0.00116617 0)
(0.996878 -7.88354e-05 0)
(0.996577 0.00230185 0)
(0.996481 0.0012201 0)
(0.996358 0.00445556 0)
(0.996529 0.00353109 0)
(0.996823 0.00648441 0)
(0.998907 0.00251056 0)
(1.00005 -0.00299916 0)
(0.998103 0.00163561 0)
(0.998035 -0.00202641 0)
(0.998058 0.00126513 0)
(0.998429 -0.00170517 0)
(0.998303 0.000569643 0)
(0.998557 -0.00127567 0)
(0.998432 0.00014142 0)
(0.998426 -0.00096069 0)
(0.998394 -6.92039e-05 0)
(0.99836 -0.000828354 0)
(0.998288 -0.000103419 0)
(0.99828 -0.000783176 0)
(0.998234 -4.77705e-05 0)
(0.998208 -0.000775631 0)
(0.998175 5.3887e-05 0)
(0.998103 -0.000809884 0)
(0.998035 0.000223796 0)
(0.99791 -0.000842549 0)
(0.997782 0.000573571 0)
(0.997599 -0.000781848 0)
(0.997413 0.00111503 0)
(0.997175 -0.000479048 0)
(0.996971 0.00204388 0)
(0.99677 0.000372272 0)
(0.996678 0.00351181 0)
(0.996688 0.00198882 0)
(0.996875 0.00621434 0)
(0.997232 0.00607546 0)
(0.999117 0.013596 0)
(1.00004 -0.00279627 0)
(0.998168 0.00135847 0)
(0.998053 -0.00173948 0)
(0.998108 0.0010093 0)
(0.998431 -0.00143396 0)
(0.998361 0.000321559 0)
(0.998566 -0.00104529 0)
(0.998488 -7.26538e-05 0)
(0.998442 -0.000780971 0)
(0.998445 -0.000227218 0)
(0.998383 -0.000693213 0)
(0.998334 -0.000230023 0)
(0.998308 -0.00064577 0)
(0.998276 -0.00020033 0)
(0.998243 -0.000585631 0)
(0.99821 -0.000197085 0)
(0.998148 -0.000512318 0)
(0.998063 -0.000179658 0)
(0.997981 -0.000405608 0)
(0.997814 -2.9529e-05 0)
(0.997697 -9.48166e-05 0)
(0.997461 0.000378963 0)
(0.997327 0.000469267 0)
(0.997067 0.00117356 0)
(0.996969 0.00154441 0)
(0.996842 0.00263837 0)
(0.997058 0.00342578 0)
(0.997507 0.00480345 0)
(0.99872 0.00579148 0)
(0.99932 0.00719097 0)
(1.00004 -0.00264562 0)
(0.998234 0.00114268 0)
(0.998085 -0.0015256 0)
(0.998158 0.000839095 0)
(0.998445 -0.00125525 0)
(0.998422 0.000183749 0)
(0.998582 -0.000906915 0)
(0.998553 -0.000157566 0)
(0.998461 -0.000668244 0)
(0.998508 -0.000281321 0)
(0.998403 -0.000591159 0)
(0.998403 -0.000293057 0)
(0.998322 -0.000483715 0)
(0.998354 -0.000324516 0)
(0.998245 -0.000273707 0)
(0.998299 -0.000435386 0)
(0.99814 -1.5092e-05 0)
(0.998166 -0.000578324 0)
(0.997965 0.00036346 0)
(0.997945 -0.000723053 0)
(0.9977 0.000925814 0)
(0.997624 -0.000676588 0)
(0.997356 0.00176009 0)
(0.997289 -0.0002336 0)
(0.997112 0.00307855 0)
(0.997189 0.00120311 0)
(0.997228 0.0053515 0)
(0.997522 0.00334104 0)
(0.997854 0.00646946 0)
(0.999834 0.00090757 0)
(1.00009 -0.00241026 0)
(0.998246 0.00082708 0)
(0.998179 -0.00122108 0)
(0.998143 0.000560872 0)
(0.998526 -0.000990095 0)
(0.998411 -6.75108e-05 0)
(0.998674 -0.000734968 0)
(0.998538 -0.000308363 0)
(0.998561 -0.000606236 0)
(0.998488 -0.000300027 0)
(0.998508 -0.000671443 0)
(0.998385 -0.000171513 0)
(0.998427 -0.000776279 0)
(0.998345 -4.1763e-06 0)
(0.998347 -0.00090827 0)
(0.998293 0.000253252 0)
(0.998241 -0.00104551 0)
(0.998174 0.000566194 0)
(0.998064 -0.0011127 0)
(0.997969 0.000953198 0)
(0.9978 -0.000996195 0)
(0.997686 0.00147489 0)
(0.997495 -0.000505895 0)
(0.99742 0.00229737 0)
(0.997349 0.000493191 0)
(0.997453 0.00371888 0)
(0.997631 0.00247921 0)
(0.997894 0.00688086 0)
(0.998158 0.00733639 0)
(0.999955 0.0135317 0)
(1.00011 -0.00231253 0)
(0.998307 0.00069479 0)
(0.998232 -0.00109032 0)
(0.998173 0.000507963 0)
(0.998562 -0.000927768 0)
(0.998443 -8.41088e-05 0)
(0.998724 -0.000778251 0)
(0.998568 -0.000264137 0)
(0.998622 -0.000691869 0)
(0.998507 -0.000223214 0)
(0.998577 -0.000758267 0)
(0.998398 -0.000105043 0)
(0.998504 -0.000833534 0)
(0.998343 4.60681e-05 0)
(0.998442 -0.0009354 0)
(0.998282 0.000299862 0)
(0.998351 -0.00106332 0)
(0.998156 0.000630541 0)
(0.998197 -0.00115573 0)
(0.997964 0.00109545 0)
(0.997965 -0.00105651 0)
(0.997717 0.00175259 0)
(0.997692 -0.000612301 0)
(0.997504 0.00269238 0)
(0.997597 0.000299539 0)
(0.99767 0.00394943 0)
(0.998186 0.00190528 0)
(0.998845 0.00658857 0)
(0.999847 0.00667887 0)
(0.999378 0.0134796 0)
(1.00006 -0.00203496 0)
(0.998439 0.000314028 0)
(0.998237 -0.000694725 0)
(0.998272 0.000166319 0)
(0.998547 -0.000497126 0)
(0.998544 -0.000417555 0)
(0.998722 -0.000363989 0)
(0.99867 -0.000640109 0)
(0.998627 -0.000217648 0)
(0.998605 -0.000716151 0)
(0.998584 -0.000124111 0)
(0.9985 -0.00079207 0)
(0.998512 4.72882e-05 0)
(0.998452 -0.000909004 0)
(0.998451 0.000306303 0)
(0.998389 -0.00105164 0)
(0.998365 0.000563257 0)
(0.998266 -0.00112188 0)
(0.998223 0.000871516 0)
(0.998084 -0.00103889 0)
(0.998013 0.00129266 0)
(0.997861 -0.000697295 0)
(0.997792 0.00194768 0)
(0.997699 8.09693e-05 0)
(0.997752 0.00302444 0)
(0.997917 0.00120311 0)
(0.998442 0.00408845 0)
(0.999267 0.00165392 0)
(1.00032 0.00347698 0)
(0.999866 9.83471e-05 0)
(1.00004 -0.00190234 0)
(0.998565 0.000132354 0)
(0.998272 -0.000666004 0)
(0.998357 0.000146977 0)
(0.998564 -0.00066985 0)
(0.998626 -0.000272902 0)
(0.998752 -0.000646145 0)
(0.998754 -0.000386537 0)
(0.998662 -0.000562287 0)
(0.998688 -0.000403275 0)
(0.998617 -0.000500992 0)
(0.998589 -0.000444633 0)
(0.998539 -0.000363874 0)
(0.998548 -0.000537443 0)
(0.998471 -0.000161532 0)
(0.998492 -0.000671261 0)
(0.998389 9.23767e-05 0)
(0.998379 -0.000716351 0)
(0.99826 0.000421174 0)
(0.998215 -0.000595906 0)
(0.998082 0.000904616 0)
(0.998027 -0.000158968 0)
(0.997914 0.00165199 0)
(0.997925 0.000701342 0)
(0.997925 0.00270912 0)
(0.99811 0.00181927 0)
(0.998352 0.00344037 0)
(0.998805 0.00153206 0)
(0.999392 0.00186726 0)
(1.0016 0.000157141 0)
(1.00006 -0.00174703 0)
(0.998642 -8.38898e-05 0)
(0.998358 -0.000481915 0)
(0.998385 5.38437e-05 0)
(0.998634 -0.000260463 0)
(0.998661 -0.000507683 0)
(0.998833 -0.000334141 0)
(0.998794 -0.000645471 0)
(0.998748 -0.000277813 0)
(0.998727 -0.000641713 0)
(0.998702 -0.000257788 0)
(0.998631 -0.000600024 0)
(0.998622 -0.000198567 0)
(0.998595 -0.000560319 0)
(0.998552 -0.000125279 0)
(0.998546 -0.00050534 0)
(0.998476 -7.4254e-05 0)
(0.998443 -0.000372066 0)
(0.998359 7.0899e-05 0)
(0.998302 -9.6267e-05 0)
(0.998212 0.000442007 0)
(0.998152 0.000439837 0)
(0.998095 0.00113574 0)
(0.998087 0.00127508 0)
(0.99814 0.00202905 0)
(0.998247 0.00236621 0)
(0.998456 0.00318766 0)
(0.99894 0.00383919 0)
(1.00006 0.00489261 0)
(1.00383 0.00609768 0)
(1.00006 -0.00144433 0)
(0.998762 -0.000398807 0)
(0.998432 -0.000268063 0)
(0.998478 -0.000127599 0)
(0.998663 -0.000277347 0)
(0.998723 -0.000409699 0)
(0.998885 -0.000486812 0)
(0.998867 -0.000423497 0)
(0.998808 -0.000605474 0)
(0.998799 -0.000257823 0)
(0.998767 -0.000763148 0)
(0.998704 -2.84479e-05 0)
(0.998689 -0.000900256 0)
(0.998667 0.000200923 0)
(0.998623 -0.00102644 0)
(0.998609 0.000474805 0)
(0.998555 -0.00110966 0)
(0.998517 0.000764526 0)
(0.998454 -0.00100845 0)
(0.998404 0.00115257 0)
(0.998335 -0.000595664 0)
(0.998302 0.00173845 0)
(0.998249 0.000125435 0)
(0.998273 0.00246359 0)
(0.998349 0.00098216 0)
(0.998568 0.00348745 0)
(0.998931 0.00248926 0)
(0.999483 0.00635727 0)
(1.00026 0.00741209 0)
(1.00292 0.0124333 0)
(1.00003 -0.00156659 0)
(0.998884 -0.000286888 0)
(0.998497 -0.000543972 0)
(0.998531 0.000170364 0)
(0.998727 -0.000459586 0)
(0.998788 -0.000194187 0)
(0.998952 -0.000636688 0)
(0.998927 -0.000330002 0)
(0.99889 -0.000668 0)
(0.998851 -0.000289059 0)
(0.998859 -0.000694896 0)
(0.99875 -0.000210969 0)
(0.998788 -0.000686013 0)
(0.998708 -0.000165831 0)
(0.998736 -0.000656277 0)
(0.998659 -0.000100969 0)
(0.998674 -0.000560472 0)
(0.998584 7.09449e-05 0)
(0.998588 -0.000292364 0)
(0.998508 0.000433103 0)
(0.998498 0.000249357 0)
(0.998439 0.00104959 0)
(0.998433 0.00101663 0)
(0.998427 0.00190219 0)
(0.998587 0.00200618 0)
(0.998807 0.00291456 0)
(0.999533 0.00308078 0)
(1.0007 0.00381943 0)
(1.00232 0.00393416 0)
(1.00298 0.00508379 0)
(0.999998 -0.000935466 0)
(0.999047 -0.000961505 0)
(0.998565 2.17606e-05 0)
(0.998686 -0.000409718 0)
(0.998719 0.000264301 0)
(0.998902 -0.000864941 0)
(0.998964 0.000131493 0)
(0.999058 -0.00114135 0)
(0.99891 0.000222636 0)
(0.998987 -0.00123011 0)
(0.998878 0.000359642 0)
(0.998893 -0.00128651 0)
(0.998801 0.000556561 0)
(0.998853 -0.00136175 0)
(0.998744 0.000756077 0)
(0.998803 -0.00139124 0)
(0.998701 0.000933202 0)
(0.998742 -0.00127066 0)
(0.998649 0.00118669 0)
(0.998693 -0.000934352 0)
(0.998604 0.00164295 0)
(0.998656 -0.000278205 0)
(0.998602 0.00240782 0)
(0.998708 0.000783386 0)
(0.99878 0.00349521 0)
(0.999053 0.00182009 0)
(0.999348 0.0041208 0)
(0.999877 0.00130547 0)
(1.0008 0.00209725 0)
(1.00415 -0.000472058 0)
(1.00003 -0.00147001 0)
(0.999111 -0.000259914 0)
(0.998702 -0.000816382 0)
(0.998698 0.000530413 0)
(0.998833 -0.00086928 0)
(0.998923 0.000376337 0)
(0.99907 -0.00112602 0)
(0.999089 0.000209852 0)
(0.999024 -0.00118846 0)
(0.999023 0.000218474 0)
(0.998994 -0.00115806 0)
(0.998936 0.000281313 0)
(0.998916 -0.00105025 0)
(0.998903 0.000336684 0)
(0.998867 -0.00093352 0)
(0.998857 0.000429369 0)
(0.99883 -0.0008177 0)
(0.998806 0.000582155 0)
(0.998791 -0.000531136 0)
(0.998786 0.000913893 0)
(0.998786 -2.91839e-06 0)
(0.998814 0.00154051 0)
(0.99885 0.000849545 0)
(0.998922 0.00251672 0)
(0.999025 0.00200585 0)
(0.999187 0.00360599 0)
(0.999466 0.00301197 0)
(1.00018 0.00441144 0)
(1.00188 0.00446504 0)
(1.00629 0.00767926 0)
(1.00004 -0.000552027 0)
(0.999213 -0.00135152 0)
(0.998835 3.65046e-05 0)
(0.998787 -0.000527144 0)
(0.998896 0.000467376 0)
(0.99898 -0.000816592 0)
(0.999136 0.000294559 0)
(0.999159 -0.00108502 0)
(0.999103 0.00021271 0)
(0.999102 -0.00112738 0)
(0.999079 0.000240837 0)
(0.999021 -0.00105042 0)
(0.999001 0.000334259 0)
(0.998986 -0.00097532 0)
(0.998951 0.000408976 0)
(0.998938 -0.000864174 0)
(0.998922 0.000497079 0)
(0.998919 -0.000649965 0)
(0.998915 0.00075758 0)
(0.998938 -0.000255333 0)
(0.998954 0.00127438 0)
(0.999007 0.000445861 0)
(0.999071 0.00203201 0)
(0.999181 0.00141025 0)
(0.999318 0.00312923 0)
(0.99952 0.00292136 0)
(0.999827 0.00503473 0)
(1.00056 0.00526218 0)
(1.0023 0.00680116 0)
(1.00678 0.00520762 0)
(1.00004 -0.00113929 0)
(0.999322 -0.000231975 0)
(0.998958 -0.00110687 0)
(0.998897 0.000619964 0)
(0.998972 -0.00100839 0)
(0.999057 0.000775328 0)
(0.999204 -0.00142725 0)
(0.999234 0.000611752 0)
(0.999182 -0.00170501 0)
(0.999183 0.000680448 0)
(0.999167 -0.00172954 0)
(0.99911 0.000812679 0)
(0.999089 -0.00159568 0)
(0.999076 0.000873803 0)
(0.999046 -0.00141911 0)
(0.999036 0.000970208 0)
(0.999032 -0.00114882 0)
(0.999028 0.00114831 0)
(0.999039 -0.000769503 0)
(0.999084 0.001437 0)
(0.999126 -0.000211757 0)
(0.999199 0.00203651 0)
(0.999289 0.000626202 0)
(0.999445 0.00291621 0)
(0.999685 0.00171594 0)
(1.00005 0.0042712 0)
(1.0005 0.00399715 0)
(1.00105 0.00820884 0)
(1.00195 0.00962231 0)
(1.00525 0.0137337 0)
(0.999965 -0.000617185 0)
(0.999412 -0.00105544 0)
(0.998996 -0.000336596 0)
(0.998983 -0.000277891 0)
(0.998999 3.4451e-05 0)
(0.999104 -0.000272832 0)
(0.99921 -0.000233207 0)
(0.999289 -0.000581725 0)
(0.999219 -0.000455044 0)
(0.999259 -0.000584028 0)
(0.999218 -0.000438147 0)
(0.999198 -0.000461082 0)
(0.999137 -0.000313539 0)
(0.999168 -0.000368219 0)
(0.999102 -0.000188059 0)
(0.99914 -0.000219437 0)
(0.9991 3.41662e-05 0)
(0.999149 3.46403e-05 0)
(0.999129 0.00040439 0)
(0.999224 0.000450326 0)
(0.99927 0.000918761 0)
(0.999392 0.00109256 0)
(0.999501 0.00174305 0)
(0.999677 0.00216031 0)
(0.999954 0.00295763 0)
(1.00051 0.00328441 0)
(1.00157 0.00382721 0)
(1.00306 0.00389406 0)
(1.00486 0.00421732 0)
(1.00456 0.00363761 0)
(0.99988 -0.000523798 0)
(0.999673 -0.000897221 0)
(0.999062 -0.000471941 0)
(0.999246 -0.000232528 0)
(0.999 -0.000101685 0)
(0.999317 -0.000206461 0)
(0.999199 -0.000285485 0)
(0.999487 -0.000465514 0)
(0.999228 -0.000431485 0)
(0.999459 -0.000520865 0)
(0.999243 -0.00037167 0)
(0.999394 -0.000467259 0)
(0.99917 -0.000206782 0)
(0.999353 -0.000394286 0)
(0.999151 -4.20593e-05 0)
(0.99933 -0.000227562 0)
(0.999173 0.000180657 0)
(0.999358 3.76217e-05 0)
(0.999238 0.000513202 0)
(0.999459 0.000506359 0)
(0.999411 0.0010008 0)
(0.999683 0.00108003 0)
(0.999747 0.00160874 0)
(1.00009 0.00176125 0)
(1.00021 0.0023849 0)
(1.00059 0.00274215 0)
(1.00082 0.00374359 0)
(1.00131 0.00436443 0)
(1.00174 0.00544558 0)
(1.00479 0.00594895 0)
(0.999948 -0.000877922 0)
(0.999574 -0.000381324 0)
(0.999204 -0.000901519 0)
(0.99918 0.000191311 0)
(0.999136 -0.000579087 0)
(0.99923 0.000305865 0)
(0.999309 -0.000784513 0)
(0.999419 -2.89134e-06 0)
(0.999347 -0.00100103 0)
(0.999421 -6.27713e-05 0)
(0.999365 -0.000961682 0)
(0.999381 3.25015e-05 0)
(0.99929 -0.000780341 0)
(0.999354 0.00015225 0)
(0.999279 -0.000579779 0)
(0.999343 0.000361545 0)