/*--------------------------------*- C++ -*----------------------------------*\
| =========                 |                                                 |
| \\      /  F ield         | OpenFOAM: The Open Source CFD Toolbox           |
|  \\    /   O peration     | Version:  v2006                                 |
|   \\  /    A nd           | Website:  www.openfoam.com                      |
|    \\/     M anipulation  |                                                 |
\*---------------------------------------------------------------------------*/
FoamFile
{
    version     2.0;
    format      ascii;
    class       volScalarField;
    location    "2";
    object      p;
}
// * * * * * * * * * * * * * * * * * * * * * * * * * * * * * * * * * * * * * //

dimensions      [0 2 -2 0 0 0 0];


internalField   nonuniform List<scalar> 
26400
(
-2.66462e-08
0.00220865
0.0020713
0.00228854
0.00171335
0.00199571
0.00162566
0.00194751
0.00164835
0.00196328
0.00171122
0.00201576
0.00180384
0.00210443
0.00192998
0.00224032
0.00211331
0.00245443
0.00239412
0.00279337
0.00282944
0.00332655
0.00350627
0.0041619
0.0045644
0.00549411
0.00630254
0.00787333
0.00961641
0.0122489
2.84516e-07
0.00220871
0.00207176
0.00228858
0.00171401
0.00199572
0.00162644
0.00194746
0.00164926
0.00196316
0.00171227
0.00201553
0.00180508
0.00210402
0.00193147
0.00223961
0.00211514
0.00245321
0.00239646
0.00279116
0.00283255
0.00332208
0.00351081
0.00415126
0.00457278
0.00546087
0.00632184
0.0077295
0.00960518
0.0115614
1.24667e-06
0.002209
0.00207267
0.00228871
0.00171527
0.00199567
0.00162793
0.00194727
0.00165102
0.0019628
0.00171433
0.00201494
0.00180748
0.00210309
0.0019343
0.00223817
0.00211851
0.002451
0.00240046
0.00278771
0.00283723
0.00331642
0.00351613
0.00414142
0.00457927
0.00544246
0.00631785
0.00765101
0.00948891
0.0109021
3.35646e-06
0.00220986
0.00207391
0.00228917
0.0017169
0.00199577
0.00162984
0.00194715
0.00165326
0.00196244
0.0017169
0.00201428
0.00181043
0.00210197
0.0019377
0.00223638
0.00212244
0.00244817
0.00240505
0.0027832
0.00284252
0.00330917
0.00352195
0.00412879
0.00458485
0.00541303
0.00631821
0.00752768
0.00926325
0.0103491
7.10307e-06
0.00221117
0.00207549
0.00228983
0.00171884
0.0019959
0.00163205
0.00194696
0.00165582
0.00196193
0.0017198
0.00201333
0.00181369
0.00210041
0.0019414
0.00223393
0.00212667
0.00244443
0.00240993
0.00277744
0.002848
0.00330028
0.00352758
0.00411394
0.00458779
0.00538482
0.00628614
0.00743685
0.00891491
0.009901
1.26589e-05
0.00221257
0.00207737
0.00229039
0.00172102
0.00199578
0.00163446
0.00194645
0.00165858
0.00196098
0.00172289
0.00201183
0.00181718
0.00209816
0.00194538
0.00223062
0.00213124
0.00243963
0.00241515
0.00277048
0.00285358
0.00329025
0.00353268
0.00410083
0.00458669
0.00537247
0.00621959
0.0073605
0.00853256
0.0093498
1.98633e-05
0.0022138
0.00207952
0.00229062
0.00172339
0.0019952
0.001637
0.00194543
0.00166149
0.00195948
0.00172619
0.0020097
0.00182097
0.00209515
0.00194979
0.00222639
0.00213638
0.00243368
0.00242101
0.00276216
0.00285964
0.00327841
0.0035379
0.00408438
0.00458528
0.00532951
0.00619356
0.00718966
0.00837276
0.00893735
2.83809e-05
0.00221473
0.00208189
0.00229046
0.00172594
0.00199412
0.00163969
0.00194388
0.00166462
0.00195743
0.0017298
0.00200695
0.00182519
0.00209143
0.00195477
0.00222128
0.00214219
0.00242668
0.00242753
0.00275263
0.00286611
0.00326457
0.00354238
0.00406663
0.00458264
0.00529361
0.00613947
0.00702596
0.00805089
0.00849357
3.78725e-05
0.00221538
0.00208451
0.00228993
0.00172876
0.00199256
0.00164262
0.00194183
0.00166809
0.00195484
0.00173387
0.00200361
0.00182998
0.002087
0.00196041
0.00221532
0.00214866
0.00241876
0.0024345
0.00274237
0.00287258
0.00325233
0.00354412
0.00405168
0.00456159
0.00529127
0.00601828
0.00692617
0.00740946
0.00800372
4.8094e-05
0.00221581
0.00208741
0.00228912
0.00173194
0.00199057
0.00164589
0.00193927
0.00167202
0.00195169
0.00173853
0.00199959
0.00183548
0.00208174
0.00196686
0.00220834
0.00215595
0.00240964
0.00244209
0.00273018
0.00287948
0.00323693
0.00354632
0.00403086
0.00455244
0.00524818
0.00594689
0.00679576
0.00709082
0.00745837
5.89173e-05
0.00221607
0.00209063
0.00228807
0.00173557
0.00198815
0.00164959
0.0019362
0.00167649
0.00194793
0.00174384
0.00199485
0.00184172
0.00207562
0.00197408
0.00220041
0.00216384
0.0023996
0.00244993
0.00271754
0.00288567
0.00322118
0.00354727
0.00400699
0.00454149
0.00517807
0.0059149
0.00663027
0.00717414
0.00683732
7.031e-05
0.00221617
0.00209422
0.00228681
0.00173974
0.00198529
0.00165378
0.00193254
0.00168159
0.00194348
0.00174989
0.00198929
0.00184877
0.00206857
0.00198206
0.00219151
0.00217222
0.00238865
0.00245782
0.00270458
0.00289049
0.00320576
0.00354507
0.00398286
0.00452116
0.00512273
0.00584711
0.00645698
0.00701532
0.00609765
8.2303e-05
0.00221607
0.00209821
0.00228533
0.00174455
0.00198195
0.00165853
0.00192823
0.00168738
0.00193828
0.00175673
0.00198289
0.00185661
0.00206061
0.00199069
0.00218178
0.00218086
0.00237689
0.00246524
0.00269164
0.00289329
0.0031909
0.00353944
0.00396147
0.00448842
0.00507865
0.0057376
0.00627504
0.00655503
0.00568225
9.4971e-05
0.00221566
0.00210263
0.0022836
0.00175008
0.00197807
0.00166389
0.00192319
0.0016939
0.00193226
0.00176437
0.00197562
0.00186518
0.00205188
0.00199975
0.00217157
0.00218939
0.00236568
0.0024713
0.00267956
0.00289302
0.00317699
0.00352488
0.0039471
0.00444474
0.00502924
0.00561629
0.00608584
0.00586992
0.00509578
0.000108423
0.00221482
0.00210751
0.00228159
0.00175643
0.00197359
0.00166994
0.00191734
0.00170121
0.00192535
0.00177283
0.00196745
0.00187446
0.00204236
0.00200913
0.00216079
0.00219772
0.00235452
0.00247595
0.00266784
0.002891
0.00316193
0.00351253
0.00390999
0.00440891
0.00494315
0.00550179
0.00591595
0.0059469
0.00469288
0.000122794
0.00221338
0.00211289
0.00227923
0.00176371
0.00196843
0.00167673
0.00191059
0.00170935
0.00191753
0.0017821
0.00195842
0.00188426
0.00203227
0.00201845
0.00214992
0.00220509
0.00234408
0.00247844
0.00265731
0.00288609
0.00314651
0.00349984
0.00387117
0.00436688
0.00484463
0.00537235
0.00570342
0.00577668
0.00395813
0.000138246
0.00221113
0.0021188
0.00227649
0.00177202
0.00196257
0.00168427
0.00190291
0.00171824
0.00190885
0.00179202
0.00194879
0.00189419
0.00202235
0.00202698
0.00214052
0.00221019
0.00233583
0.00247705
0.00264967
0.00287495
0.00313484
0.00346698
0.00384782
0.00429617
0.00476383
0.00519643
0.00543738
0.00525633
0.00371194
0.000154982
0.00220781
0.00212527
0.0022733
0.00178146
0.00195594
0.00169259
0.00189429
0.00172785
0.00189936
0.00180245
0.00193877
0.00190391
0.00201294
0.00203438
0.00213264
0.00221293
0.00232946
0.0024729
0.00264303
0.00286154
0.00312616
0.00342956
0.0038157
0.00421685
0.00467286
0.0050146
0.00512912
0.00439586
0.00320679
0.000173227
0.00220315
0.00213233
0.00226961
0.00179212
0.0019485
0.00170168
0.00188467
0.0017381
0.00188908
0.00181323
0.00192848
0.00191307
0.00200332
0.00204038
0.00212557
0.00221387
0.00232283
0.00246873
0.00263253
0.00285088
0.00309847
0.00340878
0.00375664
0.00414529
0.00453177
0.00485112
0.00497195
0.00463951
0.00286157
0.000193169
0.00219686
0.00213993
0.00226545
0.00180401
0.00194037
0.00171136
0.00187436
0.00174861
0.0018787
0.00182359
0.00192071
0.00192132
0.00199652
0.00204425
0.00212046
0.00221251
0.00231712
0.0024625
0.0026218
0.00284076
0.00307281
0.00338348
0.00368777
0.00406167
0.00437503
0.00466444
0.00473416
0.00450726
0.00203083
0.000215271
0.0021885
0.00214816
0.00226067
0.00181732
0.00193135
0.00172176
0.00186305
0.0017595
0.00186749
0.00183354
0.00190834
0.00192918
0.00198949
0.00204665
0.00211614
0.00220886
0.00231242
0.00245153
0.00261183
0.00281856
0.00305556
0.00333547
0.0036356
0.00395409
0.00423329
0.00440826
0.00437036
0.00393673
0.00211762
0.000239528
0.00217782
0.00215685
0.00225547
0.00183186
0.00192199
0.00173225
0.00185183
0.00176971
0.00185862
0.00184162
0.00190442
0.001932
0.00198873
0.0020427
0.00211916
0.00219831
0.0023174
0.00243174
0.00261547
0.0027791
0.00304219
0.00325998
0.00358148
0.00382936
0.00409692
0.00413821
0.0039166
0.00286586
0.00176323
0.000266645
0.00216425
0.00216605
0.0022497
0.00184781
0.0019121
0.00174297
0.00184
0.00177949
0.00184916
0.00184999
0.00189742
0.00193613
0.00198322
0.00204514
0.00211065
0.00220141
0.00230045
0.00243627
0.00258172
0.00277863
0.00298065
0.00323733
0.00347533
0.00371881
0.00386646
0.00392995
0.00380757
0.00346512
0.00149695
0.000296845
0.00214743
0.00217561
0.00224343
0.00186509
0.00190185
0.00175361
0.00182761
0.00178781
0.001839
0.00185641
0.00189173
0.0019388
0.00197832
0.00204551
0.00210365
0.00219841
0.0022878
0.00242782
0.00256547
0.00275858
0.00294485
0.00318432
0.00338692
0.0035878
0.0036749
0.00366295
0.00346631
0.00310439
0.0012301
0.00033021
0.00212714
0.00218516
0.00223711
0.00188315
0.00189284
0.00176324
0.00181941
0.0017924
0.00183832
0.00185527
0.00189671
0.00193186
0.00198723
0.00203232
0.00211564
0.00217628
0.00230178
0.0023826
0.00257123
0.00269192
0.00293385
0.00307108
0.00332045
0.0034282
0.00353998
0.00333918
0.00286554
0.00163972
0.000944065
0.000367433
0.00210286
0.00219465
0.00223054
0.00190206
0.00188398
0.00177273
0.0018094
0.00179713
0.0018323
0.00185814
0.00189114
0.00193646
0.00197705
0.00204355
0.00209623
0.0021933
0.00227047
0.00240503
0.00251328
0.00268874
0.00284674
0.00304131
0.00318132
0.00328585
0.00327464
0.00316546
0.00293191
0.00254624
0.000686577
0.000409215
0.00207408
0.00220392
0.00222368
0.00192159
0.00187413
0.00178109
0.00180112
0.00179963
0.0018299
0.00185834
0.00188982
0.0019346
0.00196963
0.00203996
0.00208466
0.00218819
0.00224631
0.00239829
0.0024794
0.00268224
0.00277928
0.00298976
0.00304942
0.00313385
0.00301346
0.00284554
0.00256056
0.0022945
0.000501417
0.000454511
0.00204199
0.00221183
0.00221887
0.00194051
0.00187119
0.00178393
0.00179952
0.00179299
0.00183866
0.00184603
0.00190757
0.00191543
0.00200167
0.00200478
0.00212023
0.00213758
0.00228438
0.00232783
0.00250159
0.00257981
0.00276394
0.00285857
0.0029819
0.00295514
0.00281553
0.0023589
0.00162938
0.000641138
0.00101081
0.000504607
0.00200486
0.00221907
0.00221315
0.0019627
0.00186617
0.00179084
0.00179183
0.00179547
0.00183307
0.00185001
0.00190003
0.00191855
0.00198692
0.00200514
0.00210424
0.00213413
0.0022626
0.00231322
0.00246925
0.00254558
0.00270837
0.00277671
0.00287332
0.00281994
0.0026528
0.00212704
0.0012943
0.000220931
0.000661853
0.000560926
0.00196031
0.00222382
0.00220515
0.00198161
0.00186425
0.00179576
0.00178495
0.00179861
0.00182566
0.00185843
0.00188853
0.00193214
0.00196918
0.00202572
0.00207524
0.00215071
0.0022209
0.00231707
0.0024101
0.00251879
0.00261577
0.00269902
0.00271961
0.00269322
0.00253093
0.00226496
0.00183428
0.00123987
-0.000898671
0.000620354
0.00192486
0.00222119
0.00221273
0.00199675
0.00186703
0.00179684
0.00178041
0.00179779
0.00182123
0.00186077
0.00188241
0.00193549
0.00195942
0.00202923
0.0020573
0.00214794
0.0021921
0.00229891
0.00236129
0.00246844
0.00253128
0.0025983
0.00259983
0.00255701
0.00243802
0.00223885
0.00174403
0.000646202
-0.00310199
0.000687718
0.00187099
0.00222045
0.00218579
0.00202514
0.00187236
0.00180323
0.00177718
0.00179732
0.00181944
0.00185651
0.00188356
0.00192621
0.00196308
0.00201388
0.00206554
0.00212578
0.00219063
0.0022602
0.00233196
0.0024023
0.00245656
0.00250361
0.00249055
0.0024071
0.00219563
0.00181865
0.00126675
0.000467759
-0.00214049
0.000753222
0.0018396
0.00220076
0.00221322
0.00202015
0.00189079
0.001792
0.00179198
0.00177684
0.00183745
0.00183126
0.00190696
0.00189746
0.00198777
0.0019759
0.00207636
0.0020821
0.00217859
0.00220246
0.00228634
0.00231761
0.0023771
0.00239976
0.00239348
0.00225024
0.00201319
0.00130134
0.000103295
-0.00155012
-0.00228979
0.000832388
0.00178937
0.00218731
0.00217378
0.00206103
0.00189003
0.00181432
0.00177632
0.00179413
0.00181659
0.00185123
0.00188311
0.00192124
0.00196181
0.00200273
0.00204588
0.00208986
0.00213167
0.00217673
0.00221438
0.00225187
0.00227212
0.00227537
0.0022237
0.00210157
0.00187381
0.00153042
0.00104543
0.000102858
-0.003141
0.000903508
0.00176236
0.00215506
0.00219169
0.00205986
0.00190788
0.00181678
0.00177885
0.00178798
0.00181187
0.00184501
0.00187643
0.00191339
0.00194994
0.00198773
0.00202853
0.00206899
0.00210985
0.00214077
0.00215872
0.00217453
0.00215818
0.00213135
0.00205533
0.00195665
0.00178627
0.00151236
0.000794597
-0.000896002
-0.0052756
0.000982945
0.0017312
0.00211816
0.00217543
0.00207625
0.00192047
0.00182882
0.00178227
0.00179238
0.00180866
0.00184295
0.00187048
0.00190765
0.00194566
0.00198213
0.00201905
0.00205205
0.00207156
0.00209198
0.0020921
0.00208576
0.00204593
0.00198703
0.0018788
0.00174063
0.00153499
0.00122415
0.000483361
-0.00124886
-0.00567968
0.00107109
0.00171171
0.00207742
0.00214597
0.00208811
0.00192921
0.00184165
0.00178668
0.00179348
0.00180323
0.00183581
0.00186137
0.00189793
0.00193333
0.00196706
0.00200202
0.00202737
0.00204081
0.00204841
0.00202547
0.00199582
0.00193125
0.00184881
0.00169355
0.00145324
0.00108267
0.00062528
5.97209e-05
-0.000854415
-0.00410763
0.00111158
0.001731
0.00203258
0.00216572
0.00205332
0.00197912
0.00183561
0.00182414
0.00177354
0.00181738
0.0018108
0.0018625
0.00187501
0.0019217
0.00194233
0.00197532
0.00199468
0.00200274
0.00200026
0.00196653
0.00189458
0.0018135
0.00168339
0.00153876
0.00123689
0.000699459
-0.000386017
-0.00188385
-0.00377432
-0.00350263
0.00123761
0.00168396
0.00199982
0.00210244
0.00208259
0.00196356
0.00187589
0.00181778
0.00179426
0.00179804
0.00181691
0.00184444
0.00187461
0.0019036
0.00193158
0.00194556
0.00196322
0.0019545
0.00193979
0.00188596
0.00180758
0.00167235
0.0014876
0.00126604
0.00103657
0.000756754
0.000422502
2.19495e-05
-0.00050246
-0.00339906
0.00125598
0.00173071
0.00195933
0.00212023
0.00204753
0.00200692
0.00186403
0.00184274
0.00178009
0.0018021
0.00179978
0.00183219
0.0018532
0.00188106
0.00190666
0.00192079
0.00193013
0.00191858
0.00187229
0.0018232
0.0017271
0.00161729
0.00145231
0.00125356
0.000856197
0.000114995
-0.00114553
-0.00278053
-0.00470314
-0.0040999
0.00137919
0.00168545
0.00193755
0.00205747
0.00206794
0.00199089
0.00191363
0.00184756
0.00180443
0.00178737
0.00179725
0.00181233
0.00183706
0.00185757
0.00187523
0.00187943
0.00187847
0.00185575
0.00181794
0.00175414
0.00166182
0.00153066
0.00134761
0.00109139
0.000775167
0.000434687
0.000100529
-0.000346561
-0.00157842
-0.0056221
0.0014483
0.0016876
0.0019192
0.00203421
0.00206104
0.001993
0.0019254
0.00184616
0.00180796
0.00178376
0.0017833
0.00179411
0.00181401
0.00184056
0.00185084
0.0018443
0.00184025
0.00180606
0.00176994
0.00168903
0.00159061
0.00143613
0.00125419
0.00102139
0.000755371
0.00037658
-0.000223413
-0.00136875
-0.0036084
-0.00863579
0.0014745
0.00173114
0.00190455
0.00200655
0.00203486
0.00199916
0.00193568
0.00186904
0.00182711
0.00179952
0.0017785
0.00177004
0.0017825
0.00179151
0.00180304
0.00180245
0.00179493
0.0017637
0.00171469
0.00162878
0.00151308
0.00134664
0.00114045
0.00088127
0.000566621
0.000128181
-0.000563261
-0.0017892
-0.00412693
-0.00915223
0.00161577
0.00169058
0.00188902
0.00197725
0.00202009
0.00197926
0.00193312
0.00187017
0.00182411
0.00179233
0.00176944
0.00176627
0.00176333
0.00176518
0.00177624
0.00176262
0.00175608
0.00171204
0.00165932
0.00156285
0.00144427
0.00126012
0.00101229
0.000649971
0.000196235
-0.000337915
-0.000913174
-0.0016937
-0.00323722
-0.00787011
0.00155459
0.00183134
0.00186475
0.00199139
0.00196259
0.00200629
0.00190271
0.00189881
0.00180962
0.00180743
0.00174753
0.00173878
0.00172149
0.00172582
0.00173347
0.00172849
0.00172082
0.0016799
0.00159583
0.0015111
0.00136343
0.00119915
0.000915787
0.000527206
-0.000199847
-0.00131174
-0.00284862
-0.00470688
-0.00678
-0.00585397
0.00172397
0.0017732
0.00187227
0.00193064
0.00195731
0.00196085
0.00193531
0.00188537
0.00184626
0.00180716
0.00175154
0.00170355
0.0016821
0.00167375
0.00167825
0.00166979
0.00165588
0.00161138
0.00154366
0.00144228
0.00130421
0.00110976
0.000841507
0.00048537
6.16181e-05
-0.000415524
-0.000999362
-0.00194849
-0.00401713
-0.00925425
0.00173479
0.00179279
0.00189237
0.0019367
0.00195647
0.00194126
0.00191668
0.00187144
0.00182338
0.0017804
0.00173405
0.00170603
0.00166987
0.00164173
0.00163462
0.00161054
0.00160037
0.00155137
0.00149137
0.0013805
0.00124762
0.00105507
0.000824296
0.000507102
9.07671e-05
-0.000581061
-0.00164573
-0.00344969
-0.00651734
-0.0123807
0.00176262
0.00187234
0.00190833
0.00192441
0.00192744
0.00191163
0.00189651
0.00186391
0.00183159
0.00177683
0.00171712
0.0016621
0.00161575
0.00159875
0.00158099
0.00157056
0.00154228
0.00150141
0.00142701
0.00132576
0.00118453
0.00100612
0.000767026
0.000445664
-2.52692e-05
-0.00072149
-0.00179958
-0.00354764
-0.00666224
-0.0126828
0.00185411
0.00188465
0.00190758
0.00190697
0.00189695
0.00188628
0.00186926
0.0018459
0.00181773
0.00177441
0.00170168
0.00162776
0.00158239
0.00155754
0.00154428
0.00152329
0.00149143
0.0014403
0.00136494
0.00125924
0.00111876
0.000934735
0.000689137
0.000348704
-0.000138739
-0.000860612
-0.00198557
-0.00386205
-0.0072143
-0.013555
0.00186906
0.00192024
0.00193997
0.00192709
0.00189733
0.00186712
0.00183736
0.0018075
0.00176906
0.00172436
0.00166982
0.0016157
0.00156866
0.00153496
0.00150649
0.00147611
0.00143494
0.0013777
0.00129728
0.00118804
0.00104315
0.000852175
0.000594717
0.000238453
-0.000271595
-0.00103471
-0.00224313
-0.00425511
-0.0077704
-0.0142594
0.00192626
0.0019651
0.00196056
0.00192681
0.00188064
0.001836
0.0017972
0.00176306
0.00172797
0.00169101
0.00164663
0.00159729
0.00154838
0.00150595
0.00146649
0.00142558
0.00137555
0.00131128
0.00122492
0.00111017
0.00095827
0.000757898
0.000487415
0.00011217
-0.00042974
-0.00124616
-0.00253105
-0.004636
-0.00824556
-0.014784
0.00196885
0.00199669
0.00197745
0.00192866
0.00186813
0.001812
0.00176586
0.00172878
0.0016938
0.00165738
0.00161548
0.00156838
0.00151897
0.0014715
0.00142425
0.0013737
0.00131459
0.00124217
0.00114855
0.00102632
0.000865682
0.000653719
0.000367495
-3.10799e-05
-0.000607232
-0.00147029
-0.00281137
-0.00497705
-0.00863123
-0.015187
0.00201097
0.00202767
0.00199899
0.00193494
0.00185867
0.00178961
0.00173429
0.00169148
0.00165393
0.00161813
0.00157864
0.00153395
0.00148461
0.00143363
0.00137972
0.00132054
0.0012521
0.00117042
0.00106811
0.000936851
0.000765663
0.000540182
0.000236055
-0.000186258
-0.0007926
-0.00169157
-0.00307193
-0.00527228
-0.00895414
-0.0155307
0.00205411
0.00206198
0.00201553
0.00193681
0.00184786
0.00176687
0.0017023
0.00165297
0.00161318
0.00157751
0.00153972
0.00149626
0.00144658
0.00139216
0.00133227
0.00126497
0.00118726
0.00109556
0.000983384
0.000841569
0.00065843
0.000418245
9.62524e-05
-0.000347567
-0.000978398
-0.00190392
-0.00330899
-0.00552816
-0.00922117
-0.0158042
0.00209403
0.00209025
0.00203252
0.0019402
0.00183778
0.00174514
0.00167141
0.00161611
0.00157324
0.00153625
0.00149853
0.00145535
0.00140463
0.00134683
0.00128127
0.00120622
0.00111928
0.00101729
0.000894235
0.000740864
0.000544999
0.000290306
-4.82074e-05
-0.000510292
-0.00116045
-0.00210507
-0.00352559
-0.00575674
-0.00945956
-0.0160539
0.00213161
0.0021187
0.00204887
0.0019436
0.00182838
0.00172395
0.00164062
0.00157847
0.00153179
0.00149302
0.00145477
0.00141095
0.00135865
0.00129737
0.0012264
0.00114398
0.00104801
0.000935508
0.000801003
0.000635585
0.000427082
0.000158741
-0.000194359
-0.000671724
-0.00133725
-0.00229526
-0.00372695
-0.00596704
-0.00967652
-0.0162789
0.00216662
0.00214657
0.00206465
0.00194718
0.00181978
0.00170292
0.00160924
0.0015397
0.00148887
0.00144783
0.00140847
0.00136341
0.00130911
0.00124409
0.00116772
0.00107807
0.000973283
0.000850366
0.000704528
0.000527237
0.000306662
2.58137e-05
-0.00034005
-0.000830213
-0.00150727
-0.00247532
-0.00391591
-0.00616404
-0.00987941
-0.0164831
0.0021956
0.00216986
0.00208232
0.00195424
0.00181261
0.00168218
0.00157739
0.00150044
0.00144475
0.0014011
0.00135975
0.00131307
0.00125615
0.0011873
0.00110527
0.0010086
0.000895134
0.000762325
0.000605522
0.000417031
0.000185084
-0.000106957
-0.000483925
-0.000984442
-0.00167035
-0.00264582
-0.00409317
-0.00634791
-0.0100715
-0.0166861
0.00222325
0.00219176
0.00209775
0.00195946
0.00180493
0.00166185
0.00154632
0.00146141
0.00140017
0.00135291
0.0013089
0.00125991
0.00120001
0.00112703
0.00103934
0.000935708
0.000813947
0.00067176
0.000504725
0.000305765
6.34276e-05
-0.000238645
-0.000625188
-0.00113385
-0.0018266
-0.00280754
-0.00425924
-0.00651764
-0.0102461
-0.0168692
0.00225191
0.00221507
0.00210876
0.00195918
0.00179498
0.0016418
0.00151646
0.00142287
0.00135534
0.00130337
0.00125612
0.00120406
0.00114096
0.00106354
0.000970316
0.000859785
0.000730233
0.000579203
0.000402809
0.000194177
-5.75067e-05
-0.000368517
-0.00076278
-0.00127801
-0.00197601
-0.00296101
-0.00441503
-0.00667328
-0.0103966
-0.0170099
0.00227605
0.00223366
0.00211987
0.00196051
0.00178563
0.0016219
0.00148654
0.00138428
0.00130983
0.00125268
0.00120145
0.00114592
0.00107915
0.000997243
0.000898468
0.000781373
0.000644414
0.000485272
0.000300292
8.29695e-05
-0.000177117
-0.000495565
-0.00089609
-0.0014165
-0.00211852
-0.00310614
-0.00456114
-0.00681893
-0.0105422
-0.0171607
0.00229605
0.00224937
0.00213065
0.00196297
0.0017769
0.00160167
0.0014559
0.00134502
0.00126355
0.00120091
0.00114515
0.00108574
0.00101494
0.000928486
0.000824227
0.000700912
0.000557014
0.000390484
0.000197745
-2.72988e-05
-0.000294525
-0.000619045
-0.00102464
-0.00154906
-0.0022541
-0.00324362
-0.00469959
-0.00695784
-0.010682
-0.0173016
0.00231541
0.00226533
0.00213865
0.00196196
0.00176633
0.00158084
0.00142504
0.00130536
0.00121678
0.00114829
0.00108768
0.00102392
0.000948865
0.000857726
0.000748184
0.000618927
0.000468651
0.000295388
9.58152e-05
-0.000135906
-0.000409003
-0.000738484
-0.00114805
-0.00167558
-0.00238283
-0.00337385
-0.00483078
-0.00708966
-0.0108138
-0.0174323
0.00233147
0.00227771
0.00214528
0.00196054
0.00175535
0.00155971
0.00139403
0.00126557
0.00116971
0.00109516
0.00102933
0.000960901
0.000881345
0.000785506
0.00067082
0.000535997
0.00037985
0.000200571
-5.0186e-06
-0.000242234
-0.000520136
-0.000853591
-0.00126626
-0.00179603
-0.00250474
-0.00349657
-0.00495389
-0.00721305
-0.0109376
-0.0175558
0.0023444
0.00228736
0.00215035
0.0019585
0.00174396
0.00153822
0.00136279
0.00122575
0.00112252
0.00104172
0.000970374
0.000897034
0.000812801
0.000712284
0.000592643
0.000452645
0.000291158
0.000106559
-0.000104103
-0.000345853
-0.000627673
-0.000964274
-0.00137929
-0.00191052
-0.00261989
-0.00361155
-0.0050681
-0.00732633
-0.0110512
-0.0176739
0.00235639
0.00229624
0.00215283
0.00195319
0.00173023
0.00151567
0.00133144
0.00118605
0.00107543
0.000988191
0.000911199
0.000832747
0.000743791
0.000638619
0.000514278
0.000369468
0.000203204
1.39471e-05
-0.000200903
-0.000446372
-0.000731322
-0.00107037
-0.00148704
-0.00201909
-0.00272837
-0.00371906
-0.00517374
-0.00742931
-0.0111509
-0.0177714
0.00236616
0.00230244
0.00215324
0.0019463
0.00171527
0.00149245
0.00129994
0.00114651
0.00102856
0.000934795
0.000852068
0.000768454
0.000674773
0.000565053
0.000436256
0.000287021
0.000116466
-7.66801e-05
-0.000294978
-0.000543451
-0.000830858
-0.00117173
-0.00158947
-0.0021218
-0.0028305
-0.00381971
-0.00527198
-0.00752449
-0.0112434
-0.0178646
0.00237322
0.00230652
0.00215214
0.00193851
0.00169979
0.00146884
0.00126817
0.0011069
0.000981783
0.000881634
0.00079324
0.000704487
0.000606129
0.000492028
0.000359047
0.000205788
3.15353e-05
-0.000164893
-0.000386039
-0.000636916
-0.000926209
-0.00126838
-0.00168673
-0.00221897
-0.00292689
-0.00391473
-0.00536519
-0.00761563
-0.0113323
-0.0179523
0.00237725
0.00230821
0.00214974
0.00193022
0.00168409
0.00144501
0.00123624
0.00106739
0.000935324
0.000828978
0.000735014
0.000641247
0.00053833
0.000420075
0.000283227
0.000126378
-5.10595e-05
-0.00025025
-0.000473751
-0.000726533
-0.00101725
-0.0013603
-0.00177896
-0.00231093
-0.00301809
-0.00400481
-0.00545411
-0.00770399
-0.0114221
-0.0180461
0.00237893
0.00230785
0.00214567
0.00192071
0.00166764
0.00142085
0.00120437
0.00102826
0.000889496
0.000777146
0.000677794
0.000579201
0.000471935
0.000349775
0.000209374
4.94242e-05
-0.000130734
-0.00033225
-0.00055769
-0.000811984
-0.00110378
-0.00144741
-0.0018662
-0.00239787
-0.0031044
-0.00409032
-0.0055389
-0.00778838
-0.0115065
-0.018131
0.00237967
0.00230628
0.00213978
0.00190926
0.00164985
0.00139624
0.00117274
0.000989766
0.000844627
0.000726496
0.000621988
0.000518798
0.000407443
0.000281678
0.000138166
-2.44894e-05
-0.00020698
-0.000410477
-0.000637515
-0.000893024
-0.00118562
-0.00152966
-0.00194846
-0.00247981
-0.00318576
-0.00417096
-0.00561876
-0.00786744
-0.0115847
-0.0182083
0.00237843
0.00230284
0.00213251
0.00189695
0.00163161
0.00137161
0.00114157
0.0009522
0.00080106
0.00067745
0.000568072
0.000460574
0.000345457
0.000216434
7.01332e-05
-9.49219e-05
-0.000279453
-0.000484642
-0.000713008
-0.000969482
-0.00126267
-0.00160695
-0.00202565
-0.00255658
-0.00326185
-0.00424614
-0.0056928
-0.00794017
-0.0116561
-0.0182793
0.00237559
0.00229807
0.00212432
0.00188417
0.00161331
0.00134728
0.00111112
0.000915817
0.000759103
0.000630405
0.000516496
0.000405033
0.000286479
0.000154496
5.66799e-06
-0.000161533
-0.000347853
-0.000554482
-0.000783941
-0.00104116
-0.00133475
-0.0016791
-0.00209753
-0.00262789
-0.00333229
-0.00431546
-0.00576081
-0.00800683
-0.0117217
-0.0183449
0.00237153
0.00229227
0.00211539
0.00187102
0.00159509
0.00132352
0.00108173
0.000880975
0.00071914
0.000585777
0.000467726
0.000352649
0.00023098
9.63211e-05
-5.478e-05
-0.000223886
-0.000411761
-0.000619606
-0.000849943
-0.00110771
-0.00140153
-0.00174578
-0.00216381
-0.00269347
-0.00339691
-0.00437892
-0.00582303
-0.00806791
-0.0117821
-0.0184056
0.00236663
0.00228577
0.002106
0.00185779
0.00157728
0.0013007
0.00105379
0.000848086
0.000681624
0.000544055
0.000422274
0.000303944
0.000179482
4.24381e-05
-0.000110677
-0.000281453
-0.000470666
-0.000679523
-0.000910555
-0.00116871
-0.00146263
-0.00180669
-0.00222426
-0.00275321
-0.00345573
-0.00443666
-0.00587967
-0.00812357
-0.0118372
-0.018461
0.00236124
0.00227892
0.00209656
0.00184491
0.00156028
0.00127923
0.00102776
0.000817629
0.000647062
0.000505766
0.000380688
0.000259474
0.000132542
-6.60286e-06
-0.000161483
-0.000333709
-0.000524064
-0.000733761
-0.000965344
-0.00122378
-0.00151773
-0.00186159
-0.00227874
-0.00280708
-0.00350883
-0.00448889
-0.00593094
-0.00817394
-0.0118869
-0.0185109
0.00235585
0.00227228
0.00208757
0.00183284
0.0015446
0.0012596
0.00100413
0.000790149
0.000616059
0.000471576
0.000343659
0.000219955
9.08716e-05
-5.0107e-05
-0.000206525
-0.000380014
-0.000571354
-0.000781765
-0.0010138
-0.00127246
-0.00156641
-0.00191011
-0.00232693
-0.00285482
-0.00355603
-0.00453549
-0.00597693
-0.00821934
-0.0119318
-0.0185558
0.00235064
0.00226612
0.00207954
0.00182225
0.0015309
0.00124244
0.000983513
0.000766294
0.000589309
0.000442254
0.000312051
0.000186323
5.5469e-05
-8.70292e-05
-0.000244743
-0.000419291
-0.000611459
-0.000822452
-0.00105485
-0.00131366
-0.00160761
-0.00195116
-0.00236774
-0.0028953
-0.00359617
-0.00457532
-0.00601656
-0.00825897
-0.0119718
-0.0185965
0.00234636
0.00226079
0.00207267
0.00181333
0.00151947
0.0012282
0.000966557
0.000746932
0.000567884
0.000419015
0.000287159
0.00015993
2.77261e-05
-0.000115947
-0.000274667
-0.00045003
-0.000642816
-0.000854218
-0.00108683
-0.0013457
-0.00163957
-0.00198294
-0.00239926
-0.00292654
-0.00362714
-0.00460609
-0.00604729
-0.00828984
-0.012003
-0.0186281
0.00234492
0.00225855
0.00206764
0.00180464
0.00150743
0.00121354
0.000950012
0.000728936
0.000548537
0.000398221
0.000264764
0.000135876
2.05516e-06
-0.000143115
-0.000303165
-0.000479675
-0.000673399
-0.000885535
-0.00111868
-0.00137789
-0.00167193
-0.00201527
-0.00243138
-0.00295823
-0.00365818
-0.00463632
-0.00607664
-0.00831858
-0.0120321
-0.0186605
0.0142842
0.0139864
0.0124985
0.0103281
0.00753382
0.00424519
0.000626711
-0.00295979
-0.00579593
-0.00723771
-0.00730244
-0.00654343
-0.00553441
-0.00460179
-0.0038735
-0.00336845
-0.003052
-0.00287215
-0.00278014
-0.00273817
-0.0027201
-0.00270952
-0.00269731
-0.00267941
-0.00265505
-0.00262527
-0.00259194
-0.0025571
-0.00252249
-0.00248938
-0.00245857
-0.0024304
-0.00240492
-0.002382
-0.00236144
-0.00234303
-0.00232659
-0.00231199
-0.00229914
-0.00228795
-0.00227832
-0.00227016
-0.00226337
-0.00225782
-0.00225341
-0.00225005
-0.00224763
-0.0022461
-0.00224539
-0.00224545
-0.00224625
-0.00224776
-0.00224996
-0.00225282
-0.00225632
-0.00226045
-0.00226516
-0.00227046
-0.00227631
-0.0022827
-0.00228959
-0.00229698
-0.00230485
-0.00231317
-0.00232193
-0.00233111
-0.00234069
-0.00235067
-0.00236102
-0.00237174
-0.0023828
-0.00239422
-0.00240595
-0.00241801
-0.00243038
-0.00244305
-0.002456
-0.00246925
-0.00248276
-0.00249655
-0.00251059
-0.00252489
-0.00253944
-0.00255422
-0.00256924
-0.00258449
-0.00259996
-0.00261565
-0.00263155
-0.00264765
-0.00266396
-0.00268046
-0.00269715
-0.00271403
-0.00273111
-0.00274836
-0.00276579
-0.00278339
-0.00280117
-0.00281911
-0.00283722
-0.00285549
-0.00287391
-0.00289249
-0.00291121
-0.00293009
-0.00294912
-0.00296829
-0.00298761
-0.00300707
-0.00302667
-0.00304641
-0.00306628
-0.00308628
-0.00310641
-0.00312667
-0.00314705
-0.00316755
-0.00318817
-0.00320891
-0.00322976
-0.00325073
-0.00327181
-0.00329301
-0.00331431
-0.00333573
-0.00335725
-0.00337888
-0.00340061
-0.00342245
-0.00344439
-0.00346644
-0.00348858
-0.00351083
-0.00353318
-0.00355563
-0.00357817
-0.00360081
-0.00362354
-0.00364637
-0.00366928
-0.00369228
-0.00371537
-0.00373855
-0.0037618
-0.00378515
-0.00380857
-0.00383208
-0.00385567
-0.00387934
-0.00390308
-0.00392691
-0.0039508
-0.00397478
-0.00399883
-0.00402296
-0.00404715
-0.00407142
-0.00409576
-0.00412017
-0.00414465
-0.00416921
-0.00419383
-0.00421852
-0.00424329
-0.00426812
-0.00429302
-0.00431799
-0.00434301
-0.00436811
-0.00439327
-0.0044185
-0.00444378
-0.00446913
-0.00449453
-0.00452001
-0.00454554
-0.00457113
-0.00459678
-0.00462249
-0.00464826
-0.00467409
-0.00469997
-0.00472591
-0.0047519
-0.00477795
-0.00480404
-0.00483019