/*--------------------------------*- C++ -*----------------------------------*\
| =========                 |                                                 |
| \\      /  F ield         | OpenFOAM: The Open Source CFD Toolbox           |
|  \\    /   O peration     | Version:  v2006                                 |
|   \\  /    A nd           | Website:  www.openfoam.com                      |
|    \\/     M anipulation  |                                                 |
\*---------------------------------------------------------------------------*/
FoamFile
{
    version     2.0;
    format      ascii;
    class       surfaceScalarField;
    location    "2";
    object      phi;
}
// * * * * * * * * * * * * * * * * * * * * * * * * * * * * * * * * * * * * * //

dimensions      [0 3 -1 0 0 0 0];
oriented        oriented;


internalField   nonuniform List<scalar> 
52390
(
1.17004e-06
-3.1879e-07
1.17008e-06
2.80237e-07
1.17315e-06
-2.57825e-07
1.17326e-06
2.17891e-07
1.17678e-06
-2.07086e-07
1.1769e-06
1.68085e-07
1.18031e-06
-1.67484e-07
1.18021e-06
1.29522e-07
1.18342e-06
-1.35626e-07
1.18309e-06
9.87207e-08
1.18611e-06
-1.09948e-07
1.18557e-06
7.4463e-08
1.18841e-06
-8.92595e-08
1.18763e-06
5.5913e-08
1.19033e-06
-7.24905e-08
1.1893e-06
4.18308e-08
1.1919e-06
-5.88454e-08
1.19056e-06
3.10158e-08
1.19313e-06
-4.77105e-08
1.19137e-06
2.26404e-08
1.19398e-06
-3.85048e-08
1.19166e-06
1.6195e-08
1.19438e-06
-3.05234e-08
1.1913e-06
1.13188e-08
1.19421e-06
-2.26124e-08
1.19029e-06
7.40943e-09
1.19285e-06
-1.1572e-08
1.18661e-06
4.39773e-09
1.18214e-06
1.86406e-08
2.36516e-08
1.15366e-06
1.22709e-06
-3.21621e-07
1.22767e-06
2.79657e-07
1.23155e-06
-2.61698e-07
1.23221e-06
2.17224e-07
1.23607e-06
-2.10943e-07
1.23653e-06
1.6762e-07
1.23992e-06
-1.70869e-07
1.24021e-06
1.29236e-07
1.2431e-06
-1.38524e-07
1.24332e-06
9.85065e-08
1.24571e-06
-1.1234e-07
1.24594e-06
7.42316e-08
1.24779e-06
-9.11052e-08
1.24814e-06
5.55612e-08
1.24937e-06
-7.3725e-08
1.24997e-06
4.12354e-08
1.25048e-06
-5.93573e-08
1.25147e-06
3.00269e-08
1.25108e-06
-4.73246e-08
1.25265e-06
2.10697e-08
1.25111e-06
-3.69635e-08
1.25349e-06
1.38187e-08
1.25045e-06
-2.74893e-08
1.25385e-06
7.92057e-09
1.24898e-06
-1.77401e-08
1.25341e-06
2.981e-09
1.24637e-06
-4.5282e-09
1.24968e-06
1.08513e-09
1.2378e-06
3.05219e-08
3.89443e-08
1.2225e-06
1.28548e-06
-3.24319e-07
1.28904e-06
2.76099e-07
1.29181e-06
-2.64466e-07
1.295e-06
2.14031e-07
1.29717e-06
-2.1311e-07
1.30001e-06
1.64773e-07
1.30128e-06
-1.72135e-07
1.30395e-06
1.26566e-07
1.30437e-06
-1.38942e-07
1.30705e-06
9.58237e-08
1.30665e-06
-1.11939e-07
1.30948e-06
7.14037e-08
1.30826e-06
-8.98856e-08
1.31134e-06
5.24783e-08
1.30929e-06
-7.1678e-08
1.31271e-06
3.78211e-08
1.30983e-06
-5.64746e-08
1.31359e-06
2.62603e-08
1.30989e-06
-4.36251e-08
1.31396e-06
1.7008e-08
1.30951e-06
-3.25214e-08
1.31369e-06
9.63921e-09
1.30869e-06
-2.249e-08
1.31261e-06
4.00693e-09
1.30748e-06
-1.26112e-08
1.3103e-06
1.5419e-10
1.30594e-06
-1.64893e-10
1.30352e-06
3.50626e-09
1.30063e-06
3.34138e-08
6.14437e-08
1.27813e-06
1.34585e-06
-3.26066e-07
1.35198e-06
2.69965e-07
1.35317e-06
-2.65655e-07
1.35868e-06
2.08525e-07
1.35889e-06
-2.13324e-07
1.36386e-06
1.5981e-07
1.36297e-06
-1.7125e-07
1.36756e-06
1.21972e-07
1.36577e-06
-1.37144e-07
1.37017e-06
9.14249e-08
1.36763e-06
-1.09404e-07
1.37191e-06
6.71209e-08
1.36879e-06
-8.67642e-08
1.37299e-06
4.82844e-08
1.36942e-06
-6.81138e-08
1.3735e-06
3.37447e-08
1.36963e-06
-5.26092e-08
1.3735e-06
2.23877e-08
1.36949e-06
-3.96086e-08
1.37302e-06
1.34733e-08
1.36901e-06
-2.85051e-08
1.37202e-06
6.6282e-09
1.36818e-06
-1.86531e-08
1.37035e-06
1.83905e-09
1.36708e-06
-9.34342e-09
1.36751e-06
-2.76501e-10
1.36577e-06
1.57749e-09
1.36054e-06
8.73134e-09
1.36004e-06
3.39137e-08
8.46505e-08
1.33684e-06
1.40861e-06
-3.2632e-07
1.41612e-06
2.62457e-07
1.41568e-06
-2.65214e-07
1.42242e-06
2.0178e-07
1.42105e-06
-2.11953e-07
1.42704e-06
1.5382e-07
1.42474e-06
-1.68946e-07
1.43007e-06
1.16636e-07
1.42712e-06
-1.34197e-07
1.43194e-06
8.66074e-08
1.42862e-06
-1.06082e-07
1.43298e-06
6.2759e-08
1.42949e-06
-8.32756e-08
1.43344e-06
4.43412e-08
1.42993e-06
-6.46039e-08
1.43346e-06
3.02061e-08
1.43002e-06
-4.91647e-08
1.43314e-06
1.92626e-08
1.42981e-06
-3.6276e-08
1.4325e-06
1.079e-08
1.42929e-06
-2.53038e-08
1.43146e-06
4.46533e-09
1.42845e-06
-1.56472e-08
1.42983e-06
4.62745e-10
1.42733e-06
-6.85042e-09
1.42708e-06
-2.48008e-11
1.42552e-06
3.14044e-09
1.42108e-06
1.31719e-08
1.41818e-06
3.68106e-08
1.10591e-07
1.39224e-06
1.47434e-06
-3.24984e-07
1.48191e-06
2.54883e-07
1.48017e-06
-2.63472e-07
1.48694e-06
1.95009e-07
1.48464e-06
-2.09647e-07
1.49056e-06
1.479e-07
1.48769e-06
-1.66075e-07
1.49279e-06
1.11527e-07
1.48962e-06
-1.31023e-07
1.49406e-06
8.21632e-08
1.49081e-06
-1.02832e-07
1.4947e-06
5.88698e-08
1.49151e-06
-8.00838e-08
1.49495e-06
4.09026e-08
1.49186e-06
-6.15163e-08
1.49493e-06
2.71348e-08
1.49194e-06
-4.61669e-08
1.49468e-06
1.65152e-08
1.49175e-06
-3.3339e-08
1.49416e-06
8.37587e-09
1.49127e-06
-2.24142e-08
1.49325e-06
2.48524e-09
1.49048e-06
-1.2873e-08
1.49175e-06
-8.09452e-10
1.48921e-06
-4.31178e-09
1.48942e-06
-2.35599e-10
1.48649e-06
6.07511e-09
1.48428e-06
1.53831e-08
1.48317e-06
3.79198e-08
6.42139e-08
1.52954e-06
1.54355e-06
-3.22314e-07
1.55034e-06
2.48087e-07
1.54772e-06
-2.60851e-07
1.55378e-06
1.88953e-07
1.55104e-06
-2.06906e-07
1.55634e-06
1.42602e-07
1.55335e-06
-1.63092e-07
1.5579e-06
1.06975e-07
1.55482e-06
-1.27942e-07
1.5588e-06
7.81887e-08
1.55575e-06
-9.97793e-08
1.55928e-06
5.53345e-08
1.5563e-06
-7.71078e-08
1.55952e-06
3.76859e-08
1.55661e-06
-5.86042e-08
1.55958e-06
2.41601e-08
1.5567e-06
-4.32811e-08
1.55944e-06
1.37738e-08
1.55657e-06
-3.0465e-08
1.55901e-06
5.93556e-09
1.55618e-06
-1.95851e-08
1.55814e-06
5.25925e-10
1.55548e-06
-1.02191e-08
1.55658e-06
-1.90633e-09
1.55445e-06
-2.18318e-09
1.55373e-06
4.83387e-10
1.55257e-06
7.23391e-09
1.54766e-06
2.03003e-08
1.54338e-06
4.21976e-08
9.51322e-08
1.51246e-06
1.61649e-06
-3.18676e-07
1.62232e-06
2.42257e-07
1.61911e-06
-2.57637e-07
1.62433e-06
1.83732e-07
1.62132e-06
-2.03902e-07
1.62602e-06
1.37909e-07
1.62295e-06
-1.6003e-07
1.62709e-06
1.02841e-07
1.62399e-06
-1.24847e-07
1.62773e-06
7.44549e-08
1.62466e-06
-9.67105e-08
1.62811e-06
5.18849e-08
1.62508e-06
-7.40804e-08
1.62833e-06
3.44399e-08
1.62533e-06
-5.56065e-08
1.6284e-06
2.10925e-08
1.62542e-06
-4.03018e-08
1.62826e-06
1.0936e-08
1.62532e-06
-2.75317e-08
1.6278e-06
3.45916e-09
1.625e-06
-1.67898e-08
1.62687e-06
-1.33812e-09
1.62437e-06
-7.72321e-09
1.62519e-06
-2.72577e-09
1.62339e-06
-3.80086e-10
1.62202e-06
1.85227e-09
1.62156e-06
7.6941e-09
1.61644e-06
2.54221e-08
1.61166e-06
4.69789e-08
1.31724e-07
1.57506e-06
1.69326e-06
-3.14362e-07
1.6984e-06
2.37114e-07
1.69469e-06
-2.53927e-07
1.69935e-06
1.79071e-07
1.69605e-06
-2.00593e-07
1.70042e-06
1.33534e-07
1.69713e-06
-1.56741e-07
1.70112e-06
9.8849e-08
1.69781e-06
-1.21535e-07
1.70154e-06
7.07225e-08
1.69825e-06
-9.34142e-08
1.70179e-06
4.83409e-08
1.69853e-06
-7.08187e-08
1.70192e-06
3.1055e-08
1.6987e-06
-5.2391e-08
1.7019e-06
1.78923e-08
1.69875e-06
-3.71549e-08
1.70167e-06
8.02063e-09
1.69865e-06
-2.45172e-08
1.70111e-06
1.00148e-09
1.69834e-06
-1.40143e-08
1.70009e-06
-3.09615e-09
1.69762e-06
-5.24895e-09
1.69858e-06
-3.69084e-09
1.69574e-06
2.46674e-09
1.69645e-06
1.1394e-09
1.69127e-06
1.28788e-08
1.69575e-06
2.09368e-08
1.6968e-06
4.59268e-08
8.22862e-08
1.74624e-06
1.77389e-06
-3.09531e-07
1.77878e-06
2.32221e-07
1.77457e-06
-2.49709e-07
1.77904e-06
1.74595e-07
1.77532e-06
-1.96876e-07
1.77969e-06
1.29165e-07
1.77604e-06
-1.53087e-07
1.78013e-06
9.47619e-08
1.77646e-06
-1.17868e-07
1.78035e-06
6.68303e-08
1.77671e-06
-8.97762e-08
1.78044e-06
4.46093e-08
1.77687e-06
-6.72458e-08
1.78043e-06
2.74976e-08
1.77696e-06
-4.89231e-08
1.78028e-06
1.45776e-08
1.77697e-06
-3.38492e-08
1.7799e-06
5.09375e-09
1.77686e-06
-2.14837e-08
1.77917e-06
-1.30829e-09
1.77655e-06
-1.13936e-08
1.778e-06
-4.5407e-09
1.77582e-06
-3.06682e-09
1.77632e-06
-4.19073e-09
1.77372e-06
5.06548e-09
1.77428e-06
5.80729e-10
1.76815e-06
1.90008e-08
1.77454e-06
1.45486e-08
1.77617e-06
4.43002e-08
2.65134e-08
1.83194e-06
1.85847e-06
-3.04248e-07
1.86349e-06
2.27198e-07
1.85871e-06
-2.44936e-07
1.86331e-06
1.69998e-07
1.8591e-06
-1.92669e-07
1.8637e-06
1.24569e-07
1.8596e-06
-1.48986e-07
1.86394e-06
9.04182e-08
1.85986e-06
-1.1378e-07
1.86401e-06
6.26767e-08
1.85999e-06
-8.57561e-08
1.86396e-06
4.06388e-08
1.86006e-06
-6.3351e-08
1.8638e-06
2.37619e-08
1.8601e-06
-4.52251e-08
1.86349e-06
1.11856e-08
1.86009e-06
-3.04428e-08
1.86295e-06
2.23324e-09
1.85999e-06
-1.85219e-08
1.86204e-06
-3.36213e-09
1.85969e-06
-9.04647e-09
1.86067e-06
-5.51812e-09
1.85899e-06
-1.38462e-09
1.8586e-06
-3.79718e-09
1.8574e-06
6.26129e-09
1.85529e-06
2.68984e-09
1.85359e-06
2.06986e-08
1.84857e-06
1.9575e-08
1.83878e-06
5.40905e-08
6.24082e-08
1.80288e-06
1.94712e-06
-2.98527e-07
1.95253e-06
2.21783e-07
1.94715e-06
-2.39556e-07
1.95208e-06
1.65074e-07
1.94733e-06
-1.87917e-07
1.9523e-06
1.19592e-07
1.94771e-06
-1.44398e-07
1.95242e-06
8.57112e-08
1.94789e-06
-1.09246e-07
1.95237e-06
5.81963e-08
1.94796e-06
-8.13497e-08
1.9522e-06
3.64022e-08
1.948e-06
-5.9157e-08
1.95191e-06
1.98599e-08
1.94803e-06
-4.13529e-08
1.95145e-06
7.76934e-09
1.94803e-06
-2.70277e-08
1.95073e-06
-4.66644e-10
1.94796e-06
-1.57519e-08
1.94966e-06
-5.05312e-09
1.94769e-06
-7.08114e-09
1.94811e-06
-5.94175e-09
1.947e-06
-2.68607e-10
1.94579e-06
-2.59315e-09
1.94543e-06
6.62387e-09
1.94181e-06
6.31282e-09
1.94276e-06
1.97422e-08
1.9316e-06
3.07417e-08
1.92697e-06
5.872e-08
9.36468e-08
1.89573e-06
2.04003e-06
-2.92367e-07
2.046e-06
2.15811e-07
2.03997e-06
-2.3352e-07
2.04535e-06
1.5969e-07
2.04001e-06
-1.82579e-07
2.04547e-06
1.14136e-07
2.04036e-06
-1.39295e-07
2.0455e-06
8.0574e-08
2.04051e-06
-1.04257e-07
2.04536e-06
5.33546e-08
2.04058e-06
-7.65737e-08
2.04508e-06
3.19e-08
2.04064e-06
-5.47123e-08
2.04466e-06
1.5832e-08
2.0407e-06
-3.73925e-08
2.04406e-06
4.41282e-09
2.04077e-06
-2.37324e-08
2.04318e-06
-2.87871e-09
2.04075e-06
-1.33239e-08
2.04196e-06
-6.26118e-09
2.04049e-06
-5.61039e-09
2.0403e-06
-5.75843e-09
2.03965e-06
3.84143e-10
2.03812e-06
-1.05947e-09
2.03737e-06
7.37535e-09
2.03419e-06
9.49171e-09
2.03309e-06
2.08417e-08
2.02604e-06
3.77932e-08
2.01454e-06
7.02203e-08
1.26907e-07
1.98128e-06
2.13739e-06
-2.85757e-07
2.14403e-06
2.09172e-07
2.13729e-06
-2.2678e-07
2.14322e-06
1.5376e-07
2.13726e-06
-1.76616e-07
2.14326e-06
1.08135e-07
2.13762e-06
-1.33661e-07
2.14323e-06
7.49685e-08
2.13779e-06
-9.88193e-08
2.143e-06
4.81451e-08
2.13789e-06
-7.1461e-08
2.14263e-06
2.71608e-08
2.138e-06
-5.00843e-08
2.14209e-06
1.1745e-08
2.13814e-06
-3.34473e-08
2.14134e-06
1.21648e-09
2.13828e-06
-2.0678e-08
2.14031e-06
-4.90289e-09
2.13832e-06
-1.134e-08
2.13899e-06
-6.93131e-09
2.138e-06
-4.6147e-09
2.13749e-06
-5.24793e-09
2.1366e-06
1.27053e-09
2.13576e-06
-2.23854e-10
2.13353e-06
9.60804e-09
2.13167e-06
1.13553e-08
2.12603e-06
2.64754e-08
2.13201e-06
3.18222e-08
2.15564e-06
4.65835e-08
5.20179e-08
2.23053e-06
2.23941e-06
-2.78681e-07
2.2468e-06
2.01786e-07
2.2393e-06
-2.19285e-07
2.24584e-06
1.4722e-07
2.23922e-06
-1.69995e-07
2.24581e-06
1.01549e-07
2.23963e-06
-1.27486e-07
2.24572e-06
6.88822e-08
2.23985e-06
-9.2951e-08
2.2454e-06
4.25912e-08
2.24001e-06
-6.60672e-08
2.24492e-06
2.22496e-08
2.24021e-06
-4.53716e-08
2.24424e-06
7.70943e-09
2.24046e-06
-2.96632e-08
2.24334e-06
-1.66309e-09
2.24071e-06
-1.80437e-08
2.24218e-06
-6.37412e-09
2.2408e-06
-9.96681e-09
2.24078e-06
-6.91043e-09
2.24046e-06
-4.28722e-09
2.23912e-06
-3.91291e-09
2.23924e-06
1.15298e-09
2.23689e-06
2.1255e-09
2.23628e-06
1.02155e-08
2.23287e-06
1.47701e-08
2.23046e-06
2.88854e-08
2.22342e-06
3.88631e-08
2.20738e-06
6.26226e-08
8.2873e-08
2.17652e-06
2.34632e-06
-2.71123e-07
2.35451e-06
1.93595e-07
2.34621e-06
-2.10986e-07
2.35341e-06
1.40025e-07
2.3461e-06
-1.62687e-07
2.35329e-06
9.43551e-08
2.34657e-06
-1.2077e-07
2.35313e-06
6.23228e-08
2.34687e-06
-8.6686e-08
2.35272e-06
3.674e-08
2.34712e-06
-6.04666e-08
2.35211e-06
1.72566e-08
2.34743e-06
-4.06922e-08
2.35129e-06
3.85713e-09
2.34782e-06
-2.61965e-08
2.35022e-06
-4.06691e-09
2.34817e-06
-1.59882e-08
2.34896e-06
-7.1707e-09
2.34828e-06
-9.28738e-09
2.34754e-06
-6.16624e-09
2.3479e-06
-4.64754e-09
2.3456e-06
-1.61329e-09
2.34701e-06
-2.54272e-10
2.34276e-06
6.37706e-09
2.34446e-06
8.51278e-09
2.33857e-06
2.0658e-08
2.33945e-06
2.80079e-08
2.32463e-06
5.36807e-08
2.31509e-06
7.21681e-08
1.07117e-07
2.29084e-06
2.45834e-06
-2.63068e-07
2.46738e-06
1.84556e-07
2.45824e-06
-2.01848e-07
2.46612e-06
1.3215e-07
2.45811e-06
-1.5468e-07
2.46591e-06
8.65568e-08
2.45867e-06
-1.13535e-07
2.46567e-06
5.53294e-08
2.45907e-06
-8.00885e-08
2.46513e-06
3.06753e-08
2.45944e-06
-5.47682e-08
2.46439e-06
1.23064e-08
2.45988e-06
-3.61852e-08
2.46341e-06
3.24011e-10
2.46039e-06
-2.31704e-08
2.46223e-06
-5.91292e-09
2.46078e-06
-1.45386e-08
2.46098e-06
-7.37236e-09
2.46074e-06
-9.04613e-09
2.45978e-06
-5.19888e-09
2.45995e-06
-4.82416e-09
2.45841e-06
-7.45542e-11
2.45819e-06
-2.99739e-11
2.45601e-06
8.55571e-09
2.45454e-06
9.98767e-09
2.45138e-06
2.38161e-08
2.44883e-06
3.05508e-08
2.4407e-06
6.18179e-08
2.42253e-06
9.03402e-08
1.41317e-07
2.38833e-06
2.57574e-06
-2.5451e-07
2.58565e-06
1.74644e-07
2.57565e-06
-1.91848e-07
2.58421e-06
1.23588e-07
2.57551e-06
-1.45983e-07
2.58389e-06
7.81803e-08
2.57619e-06
-1.0583e-07
2.58355e-06
4.79683e-08
2.57671e-06
-7.32516e-08
2.58287e-06
2.45134e-08
2.57721e-06
-4.91111e-08
2.58197e-06
7.55025e-09
2.57779e-06
-3.20053e-08
2.58086e-06
-2.74725e-09
2.57839e-06
-2.0699e-08
2.57963e-06
-7.14899e-09
2.57875e-06
-1.36656e-08
2.5785e-06
-7.11437e-09
2.57845e-06
-9.0005e-09
2.57765e-06
-4.39827e-09
2.57694e-06
-4.11861e-09
2.57716e-06
-2.86129e-10
2.5742e-06
2.92226e-09
2.57531e-06
7.45237e-09
2.56986e-06
1.54362e-08
2.56911e-06
2.45597e-08
2.56123e-06
3.84391e-08
2.57823e-06
4.48125e-08
2.61402e-06
5.4552e-08
5.44843e-08
2.70085e-06
2.69876e-06
-2.45446e-07
2.70957e-06
1.63838e-07
2.6987e-06
-1.8098e-07
2.70794e-06
1.14349e-07
2.69858e-06
-1.36621e-07
2.70748e-06
6.92751e-08
2.69938e-06
-9.77288e-08
2.70701e-06
4.03383e-08
2.70007e-06
-6.63066e-08
2.70617e-06
1.84148e-08
2.70073e-06
-4.36807e-08
2.7051e-06
3.18962e-09
2.70146e-06
-2.83719e-08
2.70385e-06
-5.13738e-09
2.70212e-06
-1.89689e-08
2.70261e-06
-7.6373e-09
2.70244e-06
-1.34906e-08
2.70151e-06
-6.19192e-09
2.70207e-06
-9.56108e-09
2.70049e-06
-2.81892e-09
2.70102e-06
-4.63976e-09
2.69912e-06
1.61041e-09
2.69884e-06
3.20221e-09
2.69655e-06
9.73701e-09
2.69464e-06
1.73502e-08
2.69174e-06
2.74647e-08
2.68822e-06
4.19525e-08
2.67916e-06
5.38741e-08
2.65801e-06
7.57045e-08
8.93268e-08
2.62317e-06
2.82769e-06
-2.35871e-07
2.8394e-06
1.52131e-07
2.82767e-06
-1.69244e-07
2.83756e-06
1.04452e-07
2.82757e-06
-1.26627e-07
2.83694e-06
5.99001e-08
2.82852e-06
-8.93098e-08
2.83632e-06
3.25395e-08
2.82939e-06
-5.93774e-08
2.83531e-06
1.25038e-08
2.83019e-06
-3.85645e-08
2.83411e-06
-7.28894e-10
2.83104e-06
-2.5308e-08
2.83277e-06
-6.86312e-09
2.83172e-06
-1.79204e-08
2.83157e-06
-7.48974e-09
2.83192e-06
-1.38365e-08
2.83054e-06
-4.80966e-09
2.83159e-06
-1.06187e-08
2.82913e-06
-3.50296e-10
2.83105e-06
-6.56109e-09
2.82671e-06
5.94957e-09
2.82993e-06
-1.76464e-11
2.82342e-06
1.62492e-08
2.82696e-06
1.38031e-08
2.81928e-06
3.51461e-08
2.82037e-06
4.08685e-08
2.79977e-06
7.44706e-08
2.79033e-06
8.51439e-08
1.14079e-07
2.76558e-06
2.96282e-06
-2.25793e-07
2.97541e-06
1.39541e-07
2.96284e-06
-1.5668e-07
2.97334e-06
9.39605e-08
2.96279e-06
-1.16083e-07
2.97252e-06
5.01734e-08
2.96393e-06
-8.072e-08
2.97171e-06
2.47548e-08
2.96503e-06
-5.26905e-08
2.97046e-06
7.07562e-09
2.96611e-06
-3.42156e-08
2.969e-06
-3.61966e-09
2.96705e-06
-2.33572e-08
2.96774e-06
-7.55489e-09
2.96754e-06
-1.7718e-08
2.96682e-06
-6.76951e-09
2.96737e-06
-1.43951e-08
2.96614e-06
-3.5704e-09
2.96673e-06
-1.12178e-08
2.96514e-06
1.24429e-09
2.96534e-06
-6.76035e-09
2.96342e-06
7.87096e-09
2.96323e-06
1.6972e-10
2.96002e-06
1.94609e-08
2.95837e-06
1.54505e-08
2.95584e-06
3.76758e-08
2.95313e-06
4.35815e-08
2.94211e-06
8.54862e-08
2.91664e-06
1.10614e-07
1.52e-07
2.87872e-06
3.10445e-06
-2.15239e-07
3.11789e-06
1.26106e-07
3.10456e-06
-1.43353e-07
3.11557e-06
8.29544e-08
3.10457e-06
-1.05085e-07
3.11452e-06
4.02159e-08
3.10589e-06
-7.20895e-08
3.11353e-06
1.71141e-08
3.10719e-06
-4.63496e-08
3.11214e-06
2.12995e-09
3.1083e-06
-3.03717e-08
3.11077e-06
-6.09248e-09
3.10902e-06
-2.16098e-08
3.10993e-06
-8.46759e-09
3.10882e-06
-1.65996e-08
3.10985e-06
-7.80751e-09
3.10764e-06
-1.21818e-08
3.11023e-06
-6.16389e-09
3.10556e-06
-6.54383e-09
3.11065e-06
-3.84181e-09
3.1027e-06
1.18805e-09
3.1104e-06
1.6356e-10
3.09976e-06
1.08097e-08
3.10779e-06
1.14396e-08
3.09553e-06
2.77106e-08
3.09894e-06
3.42588e-08
3.08838e-06
5.4144e-08
3.12121e-06
5.26529e-08
3.1673e-06
6.45235e-08
5.98843e-08
3.25942e-06
3.25291e-06
-2.04243e-07
3.26713e-06
1.11889e-07
3.25315e-06
-1.29372e-07
3.26455e-06
7.15561e-08
3.25324e-06
-9.37741e-08
3.26325e-06
3.02077e-08
3.25478e-06
-6.36242e-08
3.26203e-06
9.86075e-09
3.25635e-06
-4.06628e-08
3.26039e-06
-1.9098e-09
3.25767e-06
-2.76526e-08
3.25888e-06
-7.30659e-09
3.25849e-06
-2.12193e-08
3.2579e-06
-7.87449e-09
3.25858e-06
-1.72856e-08
3.25721e-06
-6.43749e-09
3.25841e-06
-1.33756e-08
3.25614e-06
-3.8914e-09
3.25822e-06
-8.6307e-09
3.25432e-06
6.13019e-11
3.25763e-06
-2.1201e-09
3.25156e-06
6.22926e-09
3.25531e-06
7.05852e-09
3.24814e-06
1.86129e-08
3.25205e-06
2.38007e-08
3.24584e-06
4.0471e-08
3.24732e-06
5.26607e-08
3.22661e-06
7.33681e-08
3.20305e-06
8.8081e-08
1.0172e-07
3.16121e-06
3.40853e-06
-1.92838e-07
3.42345e-06
9.69659e-08
3.40895e-06
-1.14871e-07
3.42059e-06
5.99123e-08
3.40913e-06
-8.23118e-08
3.41898e-06
2.03576e-08
3.41091e-06
-5.5557e-08
3.41751e-06
3.26321e-09
3.41281e-06
-3.59655e-08
3.41556e-06
-4.6542e-09
3.41435e-06
-2.64514e-08
3.41397e-06
-6.91809e-09
3.41512e-06
-2.23755e-08
3.41301e-06
-5.76491e-09
3.41524e-06
-1.95152e-08
3.41217e-06
-3.36302e-09
3.41531e-06
-1.65176e-08
3.41088e-06
5.3407e-10
3.4149e-06
-1.26415e-08
3.4092e-06
5.75984e-09
3.41424e-06
-7.16058e-09
3.4062e-06
1.42618e-08
3.41215e-06
1.11495e-09
3.40295e-06
2.78086e-08
3.40797e-06
1.87792e-08
3.40171e-06
4.67339e-08
3.40651e-06
4.78663e-08
3.38213e-06
9.77487e-08
3.35511e-06
1.15095e-07
1.46206e-07
3.31063e-06
3.57166e-06
-1.81087e-07
3.58716e-06
8.14659e-08
3.57233e-06
-1.00036e-07
3.58404e-06
4.82032e-08
3.57258e-06
-7.08524e-08
3.58213e-06
1.08016e-08
3.57446e-06
-4.78816e-08
3.58067e-06
-2.94642e-09
3.5762e-06
-3.15037e-08
3.57915e-06
-7.60283e-09
3.57701e-06
-2.43059e-08
3.5786e-06
-8.5138e-09
3.57656e-06
-2.03291e-08
3.579e-06
-8.20782e-09
3.57509e-06
-1.56007e-08
3.57991e-06
-8.18641e-09
3.57278e-06
-9.38907e-09
3.58138e-06
-8.06982e-09
3.56974e-06
-9.9457e-10
3.58195e-06
-6.44954e-09
3.56655e-06
8.23356e-09
3.58211e-06
-1.2918e-09
3.56346e-06
1.97565e-08
3.57979e-06
1.14852e-08
3.55951e-06
3.90604e-08
3.56972e-06
3.652e-08
3.55559e-06
6.19919e-08
3.60407e-06
4.92735e-08
3.65615e-06
6.30107e-08
5.83172e-08
3.74404e-06
3.74269e-06
-1.69074e-07
3.7586e-06
6.55545e-08
3.7437e-06
-8.51367e-08
3.75522e-06
3.66827e-08
3.74402e-06
-5.96456e-08
3.75294e-06
1.8782e-09
3.74607e-06
-4.10117e-08
3.75131e-06
-8.18539e-09
3.74799e-06
-2.81862e-08
3.74963e-06
-9.24016e-09
3.7492e-06
-2.38732e-08
3.74838e-06
-7.69445e-09
3.74995e-06
-2.18991e-08
3.7469e-06
-5.16051e-09
3.75081e-06
-1.95102e-08
3.74518e-06
-2.55899e-09
3.75134e-06
-1.55445e-08
3.74334e-06
-6.84986e-11
3.75158e-06
-9.24254e-09
3.74171e-06
3.42471e-09
3.74976e-06
1.81982e-10
3.73912e-06
9.34592e-09
3.74665e-06
1.22341e-08
3.73701e-06
2.11224e-08
3.7448e-06
3.12666e-08
3.73798e-06
4.33467e-08
3.73769e-06
6.22743e-08
3.71441e-06
7.25556e-08
3.68399e-06
9.34298e-08
1.07535e-07
3.63477e-06
3.92198e-06
-1.56868e-07
3.93811e-06
4.94309e-08
3.92349e-06
-7.0518e-08
3.93449e-06
2.56807e-08
3.92387e-06
-4.903e-08
3.93173e-06
-5.9793e-09
3.92596e-06
-3.5236e-08
3.93016e-06
-1.23884e-08
3.92773e-06
-2.57599e-08
3.92872e-06
-1.02262e-08
3.92882e-06
-2.39744e-08
3.92736e-06
-6.23903e-09
3.93013e-06
-2.46653e-08
3.92519e-06
-2.16039e-10
3.93147e-06
-2.57919e-08
3.92279e-06
6.12204e-09
3.93306e-06
-2.58143e-08
3.91975e-06
1.32353e-08
3.93434e-06
-2.38309e-08
3.9163e-06
2.14698e-08
3.93484e-06
-1.83617e-08
3.91301e-06
3.11778e-08
3.93356e-06
-8.31716e-09
3.91133e-06
4.33474e-08
3.93375e-06
8.84595e-09
3.91538e-06
6.17168e-08
3.93627e-06
4.13925e-08
3.89051e-06
1.18306e-07
3.85795e-06
1.25998e-07
1.55311e-07
3.81017e-06
4.10995e-06
-1.4457e-07
4.12607e-06
3.33183e-08
4.11205e-06
-5.65032e-08
4.12236e-06
1.53727e-08
4.11219e-06
-3.88584e-08
4.11954e-06
-1.33328e-08
4.11368e-06
-2.93763e-08
4.11899e-06
-1.76966e-08
4.11388e-06
-2.06559e-08
4.11964e-06
-1.59784e-08
4.11259e-06
-1.69239e-08
4.12093e-06
-1.45795e-08
4.11044e-06
-1.41782e-08
4.12254e-06
-1.23209e-08
4.10824e-06
-1.14868e-08
4.12357e-06
-9.20795e-09
4.10622e-06
-8.46021e-09
4.12403e-06
-4.58167e-09
4.10442e-06
-4.21686e-09
4.12347e-06
2.41506e-09
4.10287e-06
2.2415e-09
4.12101e-06
1.30415e-08
4.10069e-06
1.19969e-08
4.11665e-06
2.7388e-08
4.09799e-06
2.75081e-08
4.11613e-06
4.35784e-08
4.10758e-06
4.9941e-08
4.15827e-06
6.76133e-08
4.21034e-06
7.39272e-08
8.52264e-08
4.28043e-06
4.30707e-06
-1.32341e-07
4.3228e-06
1.75916e-08
4.31029e-06
-4.39945e-08
4.31897e-06
6.69794e-09
4.31018e-06
-3.00741e-08
4.31557e-06
-1.8722e-08
4.31142e-06
-2.52288e-08
4.31513e-06
-2.14008e-08
4.31149e-06
-1.70174e-08
4.31598e-06
-2.04703e-08
4.31027e-06
-1.12081e-08
4.31719e-06
-2.15049e-08
4.30832e-06
-5.31009e-09
4.31881e-06
-2.2803e-08
4.30581e-06
1.51142e-09
4.32009e-06
-2.34928e-08
4.30355e-06
8.07717e-09
4.32085e-06
-2.18757e-08
4.30136e-06
1.52741e-08
4.32059e-06
-1.68129e-08
4.29917e-06
2.36594e-08
4.3193e-06
-7.08847e-09
4.29673e-06
3.45665e-08
4.31493e-06
9.18628e-09
4.29299e-06
4.94466e-08
4.31217e-06
2.44024e-08
4.31046e-06
5.16532e-08
4.36138e-06
1.6684e-08
4.40969e-06
2.56184e-08
4.28974e-09
4.49063e-06
4.51381e-06
-1.20381e-07
4.52863e-06
2.77785e-09
4.51944e-06
-3.48079e-08
4.52494e-06
1.19514e-09
4.51795e-06
-2.3077e-08
4.52087e-06
-2.16435e-08
4.51886e-06
-2.32161e-08
4.51961e-06
-2.2159e-08
4.51986e-06
-1.72614e-08
4.51926e-06
-1.98698e-08
4.52107e-06
-1.30248e-08
4.5181e-06
-1.85357e-08
4.52194e-06
-9.14116e-09
4.51655e-06
-1.74148e-08
4.5226e-06
-4.53902e-09
4.51512e-06
-1.60193e-08
4.52265e-06
5.52671e-10
4.51382e-06
-1.30508e-08
4.5218e-06
7.29811e-09
4.51191e-06
-6.92628e-09
4.51899e-06
1.65863e-08
4.50815e-06
3.74739e-09
4.51291e-06
2.98097e-08
4.50431e-06
1.77867e-08
4.51205e-06
4.1704e-08
4.50486e-06
3.15874e-08
4.50852e-06
4.79953e-08
4.47999e-06
4.52137e-08
4.44234e-06
6.32684e-08
6.19417e-08
4.38469e-06
4.7304e-06
-1.08662e-07
4.7446e-06
-1.14302e-08
4.73645e-06
-2.66524e-08
4.74158e-06
-3.94054e-09
4.73508e-06
-1.65737e-08
4.73666e-06
-2.32238e-08
4.73561e-06
-2.21666e-08
4.73489e-06
-2.14344e-08
4.73772e-06
-2.00976e-08
4.73379e-06
-1.59376e-08
4.73961e-06
-1.88443e-08
4.73185e-06
-1.07711e-08
4.74111e-06
-1.84037e-08
4.72946e-06
-5.76824e-09
4.74261e-06
-1.7688e-08
4.7273e-06
-7.13151e-10
4.74318e-06
-1.53261e-08
4.72564e-06
4.49393e-09
4.74279e-06
-9.85635e-09
4.7242e-06
1.16659e-08
4.74125e-06
-4.66199e-10
4.72274e-06
2.22657e-08
4.7399e-06
1.26479e-08
4.72279e-06
3.4894e-08
4.73664e-06
2.78572e-08
4.7144e-06
5.38244e-08
4.71151e-06
5.08882e-08
4.68668e-06
7.00372e-08
4.68022e-06
6.97274e-08
9.43671e-08
4.6478e-06
4.95775e-06
-9.76162e-08
4.96946e-06
-2.31376e-08
4.96703e-06
-2.42265e-08
4.96599e-06
-2.89601e-09
4.96605e-06
-1.66332e-08
4.96121e-06
-1.83874e-08
4.96414e-06
-2.50921e-08
4.9605e-06
-1.78002e-08
4.96497e-06
-2.4563e-08
4.96059e-06
-1.15598e-08
4.9656e-06
-2.3858e-08
4.96016e-06
-5.32199e-09
4.96569e-06
-2.39436e-08
4.95942e-06
5.03653e-10
4.96505e-06
-2.33189e-08
4.9592e-06
5.14368e-09
4.96425e-06
-2.03821e-08
4.95784e-06
1.09072e-08
4.96147e-06
-1.34893e-08
4.95409e-06
1.9049e-08
4.95605e-06
-2.42769e-09
4.94939e-06
2.89265e-08
4.95077e-06
1.12699e-08
4.94708e-06
3.85783e-08
4.94749e-06
2.74498e-08
4.9493e-06
5.20172e-08
4.94716e-06
5.30247e-08
4.91867e-06
9.85286e-08
4.87518e-06
1.13223e-07
1.30919e-07
4.83862e-06
5.19568e-06
-8.69762e-08
5.20699e-06
-3.44532e-08
5.2026e-06
-1.98323e-08
5.20672e-06
-7.01575e-09
5.19821e-06
-8.12865e-09
5.20486e-06
-2.50373e-08
5.19551e-06
-1.57369e-08
5.20631e-06
-2.86033e-08
5.19381e-06
-1.20615e-08
5.20847e-06
-2.62203e-08
5.19174e-06
-7.12912e-09
5.21015e-06
-2.37267e-08
5.18947e-06
-3.26907e-09
5.2115e-06
-2.15265e-08
5.18775e-06
4.37302e-10
5.21153e-06
-1.86381e-08
5.18706e-06
4.08539e-09
5.2107e-06
-1.27286e-08
5.18676e-06
1.0445e-08
5.20941e-06
-3.6023e-09
5.18678e-06
2.02036e-08
5.20567e-06
1.00331e-08
5.18234e-06
3.46024e-08
5.19294e-06
2.79808e-08
5.17275e-06
4.76375e-08
5.18442e-06
4.03446e-08
5.19028e-06
4.71656e-08
5.26246e-06
2.63543e-08
5.34943e-06
2.6255e-08
2.69986e-08
5.45335e-06
5.44555e-06
-7.7342e-08
5.45218e-06
-4.10804e-08
5.4559e-06
-2.3551e-08
5.45019e-06
-1.30275e-09
5.45554e-06
-1.34828e-08
5.44615e-06
-1.56408e-08
5.45255e-06
-2.21403e-08
5.44584e-06
-2.18906e-08
5.45206e-06
-1.82813e-08
5.44697e-06
-2.11382e-08
5.45183e-06
-1.1984e-08
5.44778e-06
-1.96783e-08
5.45089e-06
-6.37839e-09
5.4466e-06
-1.72325e-08
5.44859e-06
-1.55672e-09
5.4442e-06
-1.42485e-08
5.44464e-06
3.6475e-09
5.4415e-06
-9.5907e-09
5.44262e-06
9.32413e-09
5.43875e-06
2.69227e-10
5.43934e-06
1.9617e-08
5.43525e-06
1.41221e-08
5.43559e-06
3.42629e-08
5.43359e-06
2.99776e-08
5.43481e-06
4.64178e-08
5.43408e-06
4.10761e-08
5.42346e-06
5.77818e-08
5.39718e-06
5.26391e-08
5.35866e-06
6.47695e-08
6.49064e-08
5.32075e-06
5.70692e-06
-6.82993e-08
5.71279e-06
-4.69521e-08
5.71489e-06
-2.56558e-08
5.71523e-06
-1.63639e-09
5.71499e-06
-1.32472e-08
5.71082e-06
-1.14732e-08
5.71103e-06
-2.23509e-08
5.70723e-06
-1.80847e-08
5.71136e-06
-2.24176e-08
5.70772e-06
-1.74984e-08
5.71326e-06
-1.75163e-08
5.70735e-06
-1.37742e-08
5.71355e-06
-1.25771e-08
5.70623e-06
-9.90801e-09
5.71343e-06
-8.76195e-09
5.70472e-06
-5.53806e-09
5.71228e-06
-3.90777e-09
5.70209e-06
5.96672e-10
5.70719e-06
4.22766e-09
5.69789e-06
9.56212e-09
5.7025e-06
1.50141e-08
5.69554e-06
2.10749e-08
5.70062e-06
2.91864e-08
5.69356e-06
3.70391e-08
5.69384e-06
4.61388e-08
5.68136e-06
5.35498e-08
5.67646e-06
6.26801e-08
5.65932e-06
6.97813e-08
5.64439e-06
7.97025e-08
8.78092e-08
5.62149e-06
5.98104e-06
-6.01455e-08
5.98133e-06
-4.72413e-08
5.98879e-06
-3.31174e-08
5.98769e-06
-5.40399e-10
5.99015e-06
-1.57056e-08
5.98173e-06
-3.05493e-09
5.98753e-06
-2.81489e-08
5.97899e-06
-9.53838e-09
5.98815e-06
-3.15858e-08
5.97929e-06
-8.63309e-09
5.9885e-06
-2.67253e-08
5.97961e-06
-4.88852e-09
5.98737e-06
-2.03345e-08
5.97888e-06
-1.41907e-09
5.98331e-06
-1.31942e-08
5.97588e-06
1.89089e-09
5.97862e-06
-6.64847e-09
5.97295e-06
6.27425e-09
5.97571e-06
1.46646e-09
5.97065e-06
1.462e-08
5.97351e-06
1.21494e-08
5.96886e-06
2.57256e-08
5.97242e-06
2.5634e-08
5.96736e-06
4.2097e-08
5.96686e-06
4.66398e-08
5.95496e-06
6.54499e-08
5.9488e-06
6.88343e-08
5.9319e-06
8.66893e-08
5.91922e-06
9.23798e-08
1.02801e-07
5.90423e-06
6.26825e-06
-5.29041e-08
6.26552e-06
-4.45175e-08
6.27627e-06
-4.38639e-08
6.27051e-06
5.22335e-09
6.27873e-06
-2.39278e-08
6.26611e-06
9.56419e-09
6.27581e-06
-3.78488e-08
6.26445e-06
1.82297e-09
6.27604e-06
-4.3174e-08
6.26484e-06
2.56099e-09
6.27601e-06
-3.78915e-08
6.26497e-06
6.14652e-09
6.27512e-06
-3.0478e-08
6.26446e-06
9.23371e-09
6.27347e-06
-2.22017e-08
6.26221e-06
1.31522e-08
6.2686e-06
-1.30385e-08
6.25823e-06
1.66437e-08
6.26352e-06
-3.82277e-09
6.25629e-06
2.18495e-08
6.25963e-06
8.81409e-09
6.2532e-06
3.21464e-08
6.25518e-06
2.36575e-08
6.25286e-06
4.44173e-08
6.26048e-06
3.902e-08
6.2564e-06
6.95291e-08
6.24746e-06
7.77775e-08
6.21274e-06
1.21403e-07
6.16408e-06
1.4104e-07
1.29507e-07
6.13738e-06
6.56774e-06
-4.51777e-08
6.57732e-06
-5.40961e-08
6.56169e-06
-2.82301e-08
6.58071e-06
-1.38001e-08
6.56143e-06
-4.6455e-09
6.5818e-06
-1.08084e-08
6.5599e-06
-1.59431e-08
6.58163e-06
-1.99137e-08
6.55978e-06
-2.1326e-08
6.58174e-06
-1.93921e-08
6.55979e-06
-1.59474e-08
6.58112e-06
-1.51835e-08
6.55999e-06
-9.34903e-09
6.57989e-06
-1.06607e-08
6.56021e-06
-2.5199e-09
6.57813e-06
-4.77472e-09
6.56051e-06
4.58962e-09
6.57443e-06
2.72457e-09
6.55784e-06
1.27596e-08
6.56649e-06
1.3199e-08
6.55428e-06
2.10263e-08
6.56114e-06
2.52865e-08
6.54798e-06
3.68145e-08
6.55025e-06
4.21526e-08
6.54169e-06
4.75789e-08
6.5693e-06
4.19143e-08
6.60366e-06
4.34202e-08
6.6852e-06
3.98648e-08
6.78532e-06
4.09201e-08
5.86987e-08
6.85613e-06
6.88453e-06
-3.99138e-08
6.87804e-06
-4.7606e-08
6.89038e-06
-4.05745e-08
6.88286e-06
-6.27984e-09
6.89378e-06
-1.55676e-08
6.88336e-06
-3.87369e-10
6.88984e-06
-2.24209e-08
6.88172e-06
-1.17992e-08
6.88703e-06
-2.6633e-08
6.8807e-06
-1.30599e-08
6.88628e-06
-2.15256e-08
6.87951e-06
-8.41973e-09
6.88424e-06
-1.40769e-08
6.87603e-06
-2.4443e-09
6.88043e-06
-6.92206e-09
6.87285e-06
2.80005e-09
6.87718e-06
2.65317e-10
6.87063e-06
9.27066e-09
6.87406e-06
9.32896e-09
6.86919e-06
1.80706e-08
6.87176e-06
1.8455e-08
6.87236e-06
2.46871e-08
6.88615e-06
2.30223e-08
6.89895e-06
2.93512e-08
6.91006e-06
3.64702e-08
6.89658e-06
5.53931e-08
6.86922e-06
7.07816e-08
6.81664e-06
9.24485e-08
6.75048e-06
1.0708e-07
8.19307e-08
6.72725e-06
7.21244e-06
-3.32175e-08
7.22458e-06
-5.97496e-08
7.20229e-06
-1.82797e-08
7.22646e-06
-3.04529e-08
7.20284e-06
8.05741e-09
7.22825e-06
-2.5799e-08
7.20234e-06
3.48985e-09
7.22739e-06
-3.68492e-08
7.20359e-06
-2.83801e-09
7.22574e-06
-3.52103e-08
7.20487e-06
-6.49798e-10
7.22399e-06
-2.75411e-08
7.20618e-06
3.73473e-09
7.2216e-06
-1.7871e-08
7.2057e-06
8.98447e-09
7.2166e-06
-8.10242e-09
7.20148e-06
1.53864e-08
7.209e-06
1.74957e-09
7.19782e-06
2.0513e-08
7.20482e-06
1.10634e-08
7.19687e-06
2.6409e-08
7.20181e-06
1.97487e-08
7.18962e-06
3.52047e-08
7.19005e-06
2.8928e-08
7.19023e-06
3.62836e-08
7.22174e-06
2.38859e-08
7.26881e-06
2.3714e-08
7.35241e-06
8.84635e-09
7.45592e-06
3.57586e-09