/*--------------------------------*- C++ -*----------------------------------*\
| =========                 |                                                 |
| \\      /  F ield         | OpenFOAM: The Open Source CFD Toolbox           |
|  \\    /   O peration     | Version:  v2006                                 |
|   \\  /    A nd           | Website:  www.openfoam.com                      |
|    \\/     M anipulation  |                                                 |
\*---------------------------------------------------------------------------*/
FoamFile
{
    version     2.0;
    format      ascii;
    class       volVectorField;
    location    "2";
    object      U;
}
// * * * * * * * * * * * * * * * * * * * * * * * * * * * * * * * * * * * * * //

dimensions      [0 1 -1 0 0 0 0];


internalField   nonuniform List<vector> 
26400
(
(0.909046 -0.00477098 0)
(1.09186 0.0044448 0)
(0.913098 -0.00429348 0)
(1.09152 0.00386451 0)
(0.919431 -0.00384254 0)
(1.09213 0.00333384 0)
(0.925085 -0.00346649 0)
(1.09265 0.0028698 0)
(0.930056 -0.00313185 0)
(1.09314 0.00244259 0)
(0.934345 -0.00283222 0)
(1.09362 0.00205632 0)
(0.937942 -0.00256448 0)
(1.09411 0.00172151 0)
(0.940819 -0.00232201 0)
(1.09469 0.0014327 0)
(0.942909 -0.00209999 0)
(1.09546 0.00117591 0)
(0.944101 -0.00189427 0)
(1.09653 0.000940248 0)
(0.94423 -0.0016967 0)
(1.09799 0.000719877 0)
(0.943053 -0.00148707 0)
(1.09992 0.00051052 0)
(0.940237 -0.0012117 0)
(1.10228 0.00029337 0)
(0.935267 -0.000676419 0)
(1.10458 2.45771e-05 0)
(0.926811 0.00110975 0)
(1.10574 0.000366021 0)
(0.915936 -0.00481139 0)
(1.08604 0.00444671 0)
(0.922501 -0.00435884 0)
(1.08566 0.00386325 0)
(0.930484 -0.00391938 0)
(1.08561 0.00333225 0)
(0.937494 -0.00354658 0)
(1.08508 0.00287157 0)
(0.943807 -0.00321335 0)
(1.08418 0.00244814 0)
(0.949579 -0.00291427 0)
(1.08288 0.00206597 0)
(0.954941 -0.00264608 0)
(1.08115 0.00173575 0)
(0.960026 -0.0024021 0)
(1.07891 0.00145243 0)
(0.964987 -0.00217726 0)
(1.07604 0.00120323 0)
(0.970003 -0.00196707 0)
(1.07232 0.000979525 0)
(0.975309 -0.00176213 0)
(1.0674 0.000779188 0)
(0.981188 -0.00153648 0)
(1.06079 0.000597839 0)
(0.987949 -0.00121747 0)
(1.05177 0.00039492 0)
(0.995781 -0.000552351 0)
(1.03909 0.000212621 0)
(1.00437 0.00201897 0)
(1.02009 0.00151448 0)
(0.928116 -0.00485776 0)
(1.07425 0.00442308 0)
(0.937573 -0.00442082 0)
(1.07358 0.00383676 0)
(0.947694 -0.00398397 0)
(1.07248 0.00330603 0)
(0.956448 -0.00360375 0)
(1.07042 0.00284552 0)
(0.964345 -0.00326013 0)
(1.06764 0.00241886 0)
(0.97165 -0.00294701 0)
(1.06422 0.00202932 0)
(0.978538 -0.00265925 0)
(1.06017 0.00168577 0)
(0.98514 -0.00238786 0)
(1.05555 0.00138069 0)
(0.991524 -0.00212396 0)
(1.05037 0.00109787 0)
(0.997682 -0.00185776 0)
(1.04471 0.000823958 0)
(1.0035 -0.00157352 0)
(1.03866 0.000553922 0)
(1.00875 -0.00124515 0)
(1.0324 0.000291593 0)
(1.01303 -0.000820481 0)
(1.02613 4.75211e-05 0)
(1.01565 -0.000135041 0)
(1.01991 5.52556e-05 0)
(1.01544 0.0021653 0)
(1.01418 0.00376118 0)
(0.943427 -0.00489082 0)
(1.05836 0.00434811 0)
(0.954371 -0.00445496 0)
(1.05721 0.00376051 0)
(0.965633 -0.00400568 0)
(1.05521 0.00322878 0)
(0.975136 -0.00360481 0)
(1.0521 0.00276369 0)
(0.983425 -0.00323856 0)
(1.04831 0.00232722 0)
(0.990746 -0.00290038 0)
(1.04411 0.00192338 0)
(0.997222 -0.00258452 0)
(1.03969 0.00156134 0)
(1.0029 -0.00228213 0)
(1.03528 0.00123504 0)
(1.00776 -0.00198521 0)
(1.03103 0.000931171 0)
(1.01172 -0.0016859 0)
(1.02713 0.000640597 0)
(1.01465 -0.00137107 0)
(1.02366 0.000365665 0)
(1.01644 -0.0010207 0)
(1.02066 0.000121941 0)
(1.01697 -0.000579208 0)
(1.01797 -4.58557e-05 0)
(1.01605 0.000153244 0)
(1.01518 0.00023921 0)
(1.01338 0.00254371 0)
(1.01232 0.005939 0)
(0.959201 -0.00490264 0)
(1.04141 0.00423372 0)
(0.969546 -0.00445915 0)
(1.03993 0.00364525 0)
(0.98019 -0.00399088 0)
(1.03769 0.00311296 0)
(0.988822 -0.00356581 0)
(1.03458 0.00264514 0)
(0.995922 -0.00317641 0)
(1.03117 0.00220323 0)
(1.00171 -0.00281694 0)
(1.02778 0.00179316 0)
(1.00632 -0.00248202 0)
(1.02465 0.00142553 0)
(1.00987 -0.00216314 0)
(1.02193 0.00109614 0)
(1.01243 -0.00185244 0)
(1.01968 0.000793833 0)
(1.01407 -0.00154229 0)
(1.01786 0.000511835 0)
(1.01485 -0.00122006 0)
(1.01637 0.000257028 0)
(1.01484 -0.00086765 0)
(1.01502 4.99227e-05 0)
(1.01407 -0.000460603 0)
(1.01351 -6.3059e-06 0)
(1.01246 2.55831e-05 0)
(1.01143 0.00109398 0)
(1.00989 0.00164896 0)
(1.00915 0.00843186 0)
(0.973057 -0.0048913 0)
(1.02635 0.00410619 0)
(0.981111 -0.00443879 0)
(1.0249 0.00351761 0)
(0.989699 -0.0039542 0)
(1.0231 0.00298748 0)
(0.996311 -0.00350965 0)
(1.02082 0.00252261 0)
(1.00139 -0.00310363 0)
(1.01857 0.00208303 0)
(1.00517 -0.00273119 0)
(1.01658 0.00167564 0)
(1.00788 -0.00238634 0)
(1.01496 0.00131108 0)
(1.0097 -0.00205933 0)
(1.01373 0.000985364 0)
(1.0108 -0.00174084 0)
(1.01281 0.000688363 0)
(1.01131 -0.00142301 0)
(1.01206 0.00041598 0)
(1.01132 -0.0010954 0)
(1.01134 0.000181585 0)
(1.01088 -0.000741441 0)
(1.01046 1.31959e-05 0)
(1.00993 -0.000361572 0)
(1.0092 4.32328e-05 0)
(1.00838 0.00022179 0)
(1.00729 0.00105804 0)
(1.00621 0.00260467 0)
(1.00549 0.00619694 0)
(0.983638 -0.00485936 0)
(1.0149 0.00398699 0)
(0.988715 -0.00440127 0)
(1.01377 0.00339929 0)
(0.99474 -0.00390686 0)
(1.01271 0.00287289 0)
(0.99912 -0.00344917 0)
(1.01144 0.00241373 0)
(1.00228 -0.00303201 0)
(1.01029 0.00197861 0)
(1.00447 -0.00265069 0)
(1.00939 0.00157407 0)
(1.00592 -0.00229763 0)
(1.00873 0.00120955 0)
(1.00682 -0.0019607 0)
(1.00828 0.000880274 0)
(1.00731 -0.00162815 0)
(1.00792 0.000576391 0)
(1.00746 -0.00129096 0)
(1.00755 0.000295559 0)
(1.00731 -0.000939251 0)
(1.00706 5.44956e-05 0)
(1.00681 -0.000544608 0)
(1.00632 -0.000115592 0)
(1.00589 -0.000107733 0)
(1.00517 -0.000106943 0)
(1.00439 0.000767627 0)
(1.00343 0.000588277 0)
(1.00238 0.00409054 0)
(1.00196 0.00466492 0)
(0.990777 -0.00481166 0)
(1.0073 0.00388555 0)
(0.993142 -0.00435222 0)
(1.00656 0.0032987 0)
(0.996929 -0.00385372 0)
(1.00615 0.00277435 0)
(0.999529 -0.00338706 0)
(1.0056 0.00231917 0)
(1.00133 -0.00296121 0)
(1.00513 0.00188586 0)
(1.00253 -0.0025723 0)
(1.00479 0.00148091 0)
(1.0033 -0.00221182 0)
(1.00456 0.00111381 0)
(1.00378 -0.00186682 0)
(1.0044 0.000781034 0)
(1.00402 -0.00152559 0)
(1.00423 0.000476167 0)
(1.00405 -0.00118161 0)
(1.00398 0.000202524 0)
(1.00384 -0.000830653 0)
(1.00357 -1.69992e-05 0)
(1.00332 -0.000463905 0)
(1.00288 -0.000113226 0)
(1.00241 -8.62926e-05 0)
(1.00177 0.000138469 0)
(1.00096 0.000288124 0)
(1.00018 0.00185825 0)
(0.999213 0.00259704 0)
(0.998982 0.0102072 0)
(0.995114 -0.00475259 0)
(1.00279 0.0038001 0)
(0.995518 -0.00429418 0)
(1.00235 0.00321294 0)
(0.997749 -0.0037949 0)
(1.00234 0.00268668 0)
(0.99919 -0.00332088 0)
(1.00215 0.00223152 0)
(1.00016 -0.00288649 0)
(1.00199 0.00179575 0)
(1.0008 -0.00248925 0)
(1.00187 0.00138635 0)
(1.00121 -0.00212028 0)
(1.00178 0.00101359 0)
(1.00145 -0.00176644 0)
(1.0017 0.000675899 0)
(1.00156 -0.00141668 0)
(1.00157 0.000370756 0)
(1.0015 -0.00106718 0)
(1.00135 0.00010697 0)
(1.00123 -0.000710957 0)
(1.00095 -9.31667e-05 0)
(1.00069 -0.000359629 0)
(1.00026 -0.000139347 0)
(0.999781 1.38954e-05 0)
(0.999125 0.000195456 0)
(0.99843 0.000405085 0)
(0.997598 0.00204074 0)
(0.997186 0.00232109 0)
(0.996665 0.0100178 0)
(0.997542 -0.0046848 0)
(1.00031 0.00372317 0)
(0.996753 -0.00422758 0)
(1.00006 0.00313434 0)
(0.998062 -0.00372894 0)
(1.00023 0.00260209 0)
(0.99884 -0.0032478 0)
(1.0002 0.00214345 0)
(0.999343 -0.00280397 0)
(1.00014 0.00170153 0)
(0.999664 -0.00239656 0)
(1.00009 0.00128354 0)
(0.999852 -0.00201586 0)
(1.00003 0.000899957 0)
(0.999943 -0.00164801 0)
(0.99995 0.00055041 0)
(0.999937 -0.00128185 0)
(0.999819 0.000235517 0)
(0.999801 -0.000915097 0)
(0.99958 -3.33414e-05 0)
(0.999484 -0.000537491 0)
(0.999158 -0.00023187 0)
(0.998912 -0.000148085 0)
(0.998447 -0.000290025 0)
(0.997985 0.000326169 0)
(0.99731 -0.000106983 0)
(0.996667 0.00138666 0)
(0.995843 0.000761129 0)
(0.995618 0.00391781 0)
(0.995278 0.00263841 0)
(0.998828 -0.00460955 0)
(0.99902 0.00364703 0)
(0.9974 -0.00415203 0)
(0.99886 0.00305597 0)
(0.998215 -0.00365467 0)
(0.999114 0.00251509 0)
(0.998639 -0.00316682 0)
(0.999134 0.00205206 0)
(0.998885 -0.00271418 0)
(0.999108 0.00160461 0)
(0.999018 -0.00229889 0)
(0.999069 0.0011815 0)
(0.999067 -0.00191213 0)
(0.999008 0.000795601 0)
(0.999053 -0.00154179 0)
(0.99892 0.000450266 0)
(0.998965 -0.0011798 0)
(0.998772 0.000152573 0)
(0.998765 -0.000827552 0)
(0.998513 -8.30557e-05 0)
(0.9984 -0.000485779 0)
(0.998071 -0.000216459 0)
(0.997795 -0.00014735 0)
(0.997344 -0.000186427 0)
(0.996847 0.000298494 0)
(0.996229 0.000137928 0)
(0.995513 0.00137037 0)
(0.994839 0.00101111 0)
(0.994299 0.00402961 0)
(0.994745 0.0016547 0)
(0.999486 -0.0045273 0)
(0.998371 0.00356596 0)
(0.997741 -0.00406661 0)
(0.998255 0.00297254 0)
(0.998307 -0.00357025 0)
(0.998544 0.00242043 0)
(0.99855 -0.00307468 0)
(0.998585 0.00195078 0)
(0.998656 -0.00261066 0)
(0.99857 0.00149441 0)
(0.998684 -0.00218332 0)
(0.998532 0.00106085 0)
(0.998652 -0.00178393 0)
(0.998465 0.000664667 0)
(0.998573 -0.00140091 0)
(0.998363 0.000311615 0)
(0.998434 -0.00102812 0)
(0.998196 1.29685e-05 0)
(0.998194 -0.000664806 0)
(0.997917 -0.000216094 0)
(0.997802 -0.000324752 0)
(0.997453 -0.000321278 0)
(0.99718 7.37039e-06 0)
(0.99671 -0.000249106 0)
(0.996231 0.000441162 0)
(0.9956 0.000220307 0)
(0.994927 0.00128486 0)
(0.994296 0.00165264 0)
(0.993784 0.00395535 0)
(0.99472 0.00611583 0)
(0.999816 -0.00443836 0)
(0.998053 0.00347693 0)
(0.99792 -0.00397101 0)
(0.997961 0.00288213 0)
(0.998363 -0.00347615 0)
(0.998269 0.00231816 0)
(0.998514 -0.0029741 0)
(0.998321 0.00184346 0)
(0.998549 -0.00250108 0)
(0.998312 0.00138198 0)
(0.99852 -0.00206701 0)
(0.998276 0.000945566 0)
(0.998443 -0.00166508 0)
(0.998205 0.000552442 0)
(0.998328 -0.00128668 0)
(0.998095 0.000213638 0)
(0.998159 -0.000929865 0)
(0.997918 -5.57947e-05 0)
(0.997895 -0.00059953 0)
(0.997627 -0.000232068 0)
(0.997486 -0.000306368 0)
(0.997151 -0.000256337 0)
(0.996855 -2.6631e-05 0)
(0.996402 -4.87429e-05 0)
(0.995916 0.00027514 0)
(0.995301 0.000635838 0)
(0.994674 0.00100064 0)
(0.994118 0.00244595 0)
(0.993863 0.00365108 0)
(0.994732 0.0103038 0)
(0.99998 -0.00434258 0)
(0.997904 0.00337763 0)
(0.998017 -0.00386374 0)
(0.997826 0.00278198 0)
(0.9984 -0.00336984 0)
(0.998146 0.00220421 0)
(0.998507 -0.00286055 0)
(0.998205 0.0017232 0)
(0.998505 -0.00237667 0)
(0.998201 0.00125476 0)
(0.998447 -0.00193345 0)
(0.998167 0.000812942 0)
(0.998348 -0.00152543 0)
(0.998094 0.000419339 0)
(0.998215 -0.00114691 0)
(0.99798 8.95658e-05 0)
(0.998031 -0.00079744 0)
(0.997796 -0.000160879 0)
(0.997758 -0.000492002 0)
(0.997495 -0.000297052 0)
(0.997347 -0.000223544 0)
(0.997011 -0.000274319 0)
(0.996723 5.13664e-05 0)
(0.996251 -2.07751e-05 0)
(0.99581 0.000474847 0)
(0.995172 0.000641659 0)
(0.994642 0.0014998 0)
(0.994114 0.00237442 0)
(0.994388 0.00399149 0)
(0.995049 0.00644693 0)
(1.00007 -0.00423992 0)
(0.997832 0.003267 0)
(0.998079 -0.00374433 0)
(0.997762 0.00267163 0)
(0.998433 -0.00325179 0)
(0.99809 0.00207952 0)
(0.998519 -0.0027366 0)
(0.998155 0.00159363 0)
(0.998498 -0.00224389 0)
(0.998156 0.0011216 0)
(0.998425 -0.0017961 0)
(0.998125 0.000680314 0)
(0.998314 -0.00138926 0)
(0.998055 0.000295952 0)
(0.99817 -0.00102124 0)
(0.997942 -1.2325e-05 0)
(0.997977 -0.000691408 0)
(0.997757 -0.000228598 0)
(0.997697 -0.000418376 0)
(0.997457 -0.000313924 0)
(0.997283 -0.000183375 0)
(0.996975 -0.000244931 0)
(0.996661 9.28625e-05 0)
(0.996237 -2.09228e-05 0)
(0.995761 0.000714899 0)
(0.995208 0.000581316 0)
(0.994661 0.00207363 0)
(0.994235 0.00227369 0)
(0.99421 0.00460847 0)
(0.9955 0.00287721 0)
(1.00012 -0.00412996 0)
(0.997793 0.00314362 0)
(0.998126 -0.00361132 0)
(0.997727 0.0025491 0)
(0.998468 -0.00311996 0)
(0.998058 0.00194112 0)
(0.998547 -0.00259911 0)
(0.998125 0.00145025 0)
(0.998519 -0.0020979 0)
(0.998126 0.000975672 0)
(0.998441 -0.00164659 0)
(0.998094 0.000536166 0)
(0.998326 -0.00124352 0)
(0.998023 0.000165125 0)
(0.998182 -0.000893659 0)
(0.997908 -0.000113926 0)
(0.997989 -0.000600201 0)
(0.997719 -0.000280915 0)
(0.997714 -0.000372264 0)
(0.997414 -0.000300944 0)
(0.997306 -0.000184378 0)
(0.996934 -0.000156692 0)
(0.996692 5.7674e-05 0)
(0.996216 0.000211094 0)
(0.995821 0.000553549 0)
(0.995245 0.00104254 0)
(0.994807 0.00181961 0)
(0.994383 0.00307654 0)
(0.994393 0.00482065 0)
(0.99616 0.0071862 0)
(1.00015 -0.00401317 0)
(0.997775 0.00300796 0)
(0.998161 -0.00346552 0)
(0.99771 0.00241651 0)
(0.998494 -0.00297729 0)
(0.998045 0.00179426 0)
(0.99857 -0.00245484 0)
(0.998114 0.00130318 0)
(0.998536 -0.00195097 0)
(0.998117 0.000833624 0)
(0.998454 -0.00150485 0)
(0.998087 0.000407168 0)
(0.998337 -0.00111986 0)
(0.998017 6.62456e-05 0)
(0.998191 -0.000808868 0)
(0.997903 -0.000163196 0)
(0.997999 -0.000575447 0)
(0.997715 -0.000260285 0)
(0.997727 -0.000408642 0)
(0.997411 -0.000205384 0)
(0.997325 -0.00027173 0)
(0.996937 1.52397e-05 0)
(0.996729 -0.000102502 0)
(0.996232 0.000576229 0)
(0.995894 0.000305781 0)
(0.995319 0.00164336 0)
(0.994984 0.00145757 0)
(0.994643 0.00392261 0)
(0.994908 0.00491104 0)
(0.996372 0.0117322 0)
(1.00017 -0.00388769 0)
(0.997778 0.00285628 0)
(0.998183 -0.00330293 0)
(0.997714 0.00226835 0)
(0.998508 -0.00281757 0)
(0.998053 0.00163067 0)
(0.998581 -0.00229397 0)
(0.998126 0.0011399 0)
(0.998543 -0.00178778 0)
(0.998131 0.000676761 0)
(0.998458 -0.00134758 0)
(0.998103 0.00026501 0)
(0.99834 -0.000981326 0)
(0.998033 -4.60695e-05 0)
(0.998196 -0.000696399 0)
(0.997917 -0.000234276 0)
(0.998009 -0.000503084 0)
(0.997726 -0.000285135 0)
(0.997744 -0.000359017 0)
(0.997422 -0.000211721 0)
(0.997353 -0.000197963 0)
(0.996947 -1.27472e-05 0)
(0.996783 9.40657e-05 0)
(0.996262 0.000424344 0)
(0.995992 0.000748135 0)
(0.995406 0.00143763 0)
(0.995186 0.00224366 0)
(0.994946 0.00351964 0)
(0.995785 0.00497508 0)
(0.996792 0.0069823 0)
(1.00018 -0.00375483 0)
(0.997792 0.00269095 0)
(0.9982 -0.00312687 0)
(0.997729 0.00210795 0)
(0.998518 -0.00264613 0)
(0.998074 0.00145478 0)
(0.998589 -0.00212443 0)
(0.998153 0.000966757 0)
(0.998546 -0.00162057 0)
(0.998162 0.000515477 0)
(0.998456 -0.00119468 0)
(0.998137 0.000127884 0)
(0.998336 -0.000879118 0)
(0.99807 -0.000140588 0)
(0.998192 -0.000640623 0)
(0.997955 -0.000274113 0)
(0.998006 -0.000485461 0)
(0.997767 -0.000279522 0)
(0.997742 -0.000350609 0)
(0.997469 -0.000192737 0)
(0.997354 -0.000155975 0)
(0.997015 -3.22039e-05 0)
(0.99679 0.000262649 0)
(0.996365 0.000290313 0)
(0.996046 0.00114309 0)
(0.995594 0.00128602 0)
(0.995329 0.00296499 0)
(0.995153 0.00331277 0)
(0.995534 0.00513841 0)
(0.997321 0.00276785 0)
(1.00019 -0.00361955 0)
(0.997805 0.00251976 0)
(0.998223 -0.00294501 0)
(0.997738 0.0019514 0)
(0.998538 -0.00247798 0)
(0.998084 0.00129483 0)
(0.998613 -0.00197236 0)
(0.998163 0.00082698 0)
(0.998572 -0.00148859 0)
(0.998169 0.000408443 0)
(0.998484 -0.00109492 0)
(0.99814 7.03726e-05 0)
(0.99837 -0.000796189 0)
(0.998069 -0.00015625 0)
(0.998233 -0.000618701 0)
(0.997949 -0.000235124 0)
(0.998054 -0.000510416 0)
(0.99776 -0.000193216 0)
(0.997797 -0.000403757 0)
(0.997465 -5.65994e-05 0)
(0.997415 -0.000221574 0)
(0.997024 0.00017273 0)
(0.996867 0.000108471 0)
(0.996417 0.000657661 0)
(0.996182 0.000916337 0)
(0.995734 0.00182277 0)
(0.995568 0.00266905 0)
(0.995373 0.00426645 0)
(0.995715 0.00579566 0)
(0.998121 0.00770433 0)
(1.00018 -0.00345794 0)
(0.997838 0.00230381 0)
(0.99823 -0.00271702 0)
(0.997764 0.0017356 0)
(0.99854 -0.00224818 0)
(0.998112 0.00105447 0)
(0.998619 -0.00174031 0)
(0.998191 0.000585566 0)
(0.998578 -0.00125769 0)
(0.998197 0.000178138 0)
(0.998493 -0.00088951 0)
(0.998169 -0.000130166 0)
(0.998381 -0.000630295 0)
(0.998093 -0.000303805 0)
(0.998249 -0.000504642 0)
(0.997972 -0.000319606 0)
(0.998075 -0.000458324 0)
(0.997784 -0.000213292 0)
(0.997825 -0.00042997 0)
(0.997496 1.57899e-05 0)
(0.997451 -0.000351479 0)
(0.997063 0.000442684 0)
(0.996929 -0.000114367 0)
(0.996493 0.00122533 0)
(0.996303 0.000569228 0)
(0.9959 0.00256373 0)
(0.995837 0.00215247 0)
(0.995762 0.00531324 0)
(0.996288 0.00625636 0)
(0.998019 0.0129914 0)
(1.00015 -0.00332893 0)
(0.997905 0.00213683 0)
(0.998213 -0.00254081 0)
(0.997824 0.00160285 0)
(0.998517 -0.00210823 0)
(0.998175 0.000940487 0)
(0.998601 -0.00164907 0)
(0.998256 0.000525446 0)
(0.998561 -0.00122375 0)
(0.998259 0.000192814 0)
(0.99848 -0.000939772 0)
(0.998224 -3.68819e-05 0)
(0.998375 -0.000797851 0)
(0.998143 -0.000113197 0)
(0.998253 -0.000734114 0)
(0.998015 -8.33602e-05 0)
(0.998089 -0.000689379 0)
(0.997822 1.40349e-06 0)
(0.997851 -0.000597417 0)
(0.997531 0.000140998 0)
(0.997502 -0.000382295 0)
(0.99711 0.000438336 0)
(0.99702 0.000104642 0)
(0.996574 0.00106425 0)
(0.996446 0.00105193 0)
(0.99606 0.00237889 0)
(0.996131 0.00300975 0)
(0.996238 0.00476965 0)
(0.997372 0.00578367 0)
(0.998304 0.00708124 0)
(1.00012 -0.0031304 0)
(0.997985 0.00185905 0)
(0.998196 -0.0022522 0)
(0.997898 0.00132608 0)
(0.998493 -0.00181319 0)
(0.998252 0.000637952 0)
(0.998583 -0.00135197 0)
(0.998336 0.000223679 0)
(0.998544 -0.000915773 0)
(0.998338 -9.33878e-05 0)
(0.998464 -0.000607729 0)
(0.998301 -0.000330786 0)
(0.998364 -0.000421864 0)
(0.998218 -0.000451238 0)
(0.998242 -0.000280216 0)
(0.998094 -0.000519035 0)
(0.998077 -0.000103164 0)
(0.99791 -0.000561112 0)
(0.997836 0.000170316 0)
(0.997637 -0.000573996 0)
(0.99749 0.000563033 0)
(0.997246 -0.000473349 0)
(0.997027 0.00121268 0)
(0.996757 -4.39975e-05 0)
(0.996541 0.00233668 0)
(0.996368 0.00124889 0)
(0.99632 0.00447986 0)
(0.996425 0.00355225 0)
(0.996783 0.00650349 0)
(0.998808 0.0025307 0)
(1.0001 -0.00299786 0)
(0.998049 0.00167936 0)
(0.998204 -0.00206806 0)
(0.997946 0.00119198 0)
(0.9985 -0.00167702 0)
(0.9983 0.000533068 0)
(0.998603 -0.00128823 0)
(0.998381 0.000185877 0)
(0.998572 -0.000955092 0)
(0.998375 -1.76125e-05 0)
(0.998498 -0.000793949 0)
(0.99833 -0.000103356 0)
(0.998406 -0.000769778 0)
(0.998244 -7.30681e-05 0)
(0.99829 -0.00079601 0)
(0.998119 3.62481e-05 0)
(0.99813 -0.00082679 0)
(0.997938 0.000232189 0)
(0.997896 -0.000824873 0)
(0.997668 0.00060493 0)
(0.997563 -0.000746611 0)
(0.997296 0.00114335 0)
(0.997135 -0.000452977 0)
(0.99686 0.00207138 0)
(0.996727 0.000398738 0)
(0.996573 0.00353725 0)
(0.996644 0.00201051 0)
(0.996778 0.00622911 0)
(0.997187 0.00608747 0)
(0.999025 0.0136031 0)
(1.00006 -0.00279509 0)
(0.998138 0.00139971 0)
(0.998196 -0.00178031 0)
(0.998022 0.000938056 0)
(0.998485 -0.00140765 0)
(0.998377 0.000286049 0)
(0.998597 -0.0010603 0)
(0.998457 -2.86276e-05 0)
(0.998573 -0.000772807 0)
(0.998443 -0.000181567 0)
(0.998507 -0.000661793 0)
(0.998391 -0.000228734 0)
(0.998423 -0.000632943 0)
(0.998298 -0.00022273 0)
(0.998317 -0.000603291 0)
(0.998167 -0.000210371 0)
(0.998169 -0.00052745 0)
(0.99798 -0.000168024 0)
(0.997962 -0.000389365 0)
(0.997712 -1.45266e-06 0)
(0.997655 -4.86165e-05 0)
(0.99735 0.000432197 0)
(0.997277 0.000513308 0)
(0.996964 0.0012142 0)
(0.996919 0.0015788 0)
(0.996744 0.00266936 0)
(0.997005 0.00345124 0)
(0.997414 0.00482306 0)
(0.998667 0.00580767 0)
(0.999235 0.00720499 0)
(1.00005 -0.00264492 0)
(0.998224 0.00118129 0)
(0.998205 -0.00156455 0)
(0.998095 0.000770837 0)
(0.998483 -0.00123292 0)
(0.998456 0.000151324 0)
(0.998603 -0.00092085 0)
(0.998539 -0.000116302 0)
(0.99858 -0.000668002 0)
(0.998523 -0.000229603 0)
(0.998514 -0.000554513 0)
(0.998473 -0.000292678 0)
(0.998426 -0.000466469 0)
(0.998387 -0.000350093 0)
(0.998312 -0.000291664 0)
(0.998268 -0.000448825 0)
(0.998156 -2.58722e-05 0)
(0.998096 -0.000571717 0)
(0.997942 0.000378552 0)
(0.997857 -0.000701648 0)
(0.997657 0.000957147 0)
(0.997526 -0.000646786 0)
(0.997304 0.00180291 0)
(0.997194 -0.000198795 0)
(0.997058 0.00310803 0)
(0.997098 0.00122757 0)
(0.997173 0.00537201 0)
(0.997438 0.00335935 0)
(0.997799 0.00648635 0)
(0.999755 0.000925953 0)
(1.00008 -0.00240969 0)
(0.998251 0.000862273 0)
(0.998282 -0.00125852 0)
(0.998097 0.000494937 0)
(0.998554 -0.000971191 0)
(0.998458 -9.59768e-05 0)
(0.998687 -0.00074871 0)
(0.998538 -0.000272234 0)
(0.998672 -0.000600245 0)
(0.998515 -0.000259192 0)
(0.998608 -0.000637764 0)
(0.998463 -0.000172524 0)
(0.998524 -0.000759652 0)
(0.998385 -2.01015e-05 0)
(0.99841 -0.000923421 0)
(0.998272 0.000243255 0)
(0.998254 -0.00105017 0)
(0.998115 0.000576918 0)
(0.998039 -0.00108377 0)
(0.997888 0.000986135 0)
(0.997751 -0.00095733 0)
(0.997596 0.00150833 0)
(0.997441 -0.00046613 0)
(0.997331 0.00233621 0)
(0.997292 0.000522911 0)
(0.997368 0.00374314 0)
(0.997573 0.0024987 0)
(0.997815 0.00689451 0)
(0.998101 0.00734876 0)
(0.999881 0.0135424 0)
(1.00009 -0.00231172 0)
(0.998322 0.000727585 0)
(0.998322 -0.00112852 0)
(0.998141 0.000443773 0)
(0.998583 -0.000911135 0)
(0.998499 -0.000115459 0)
(0.998733 -0.000794496 0)
(0.998577 -0.000229181 0)
(0.998728 -0.000689852 0)
(0.998543 -0.000182501 0)
(0.998671 -0.000723234 0)
(0.998481 -0.000102507 0)
(0.998595 -0.000815406 0)
(0.998386 3.46117e-05 0)
(0.998501 -0.000948269 0)
(0.998268 0.000294219 0)
(0.998363 -0.00106656 0)
(0.998105 0.000642596 0)
(0.99817 -0.00112985 0)
(0.997891 0.00112025 0)
(0.997916 -0.00101097 0)
(0.997632 0.00179739 0)
(0.997635 -0.000568848 0)
(0.997417 0.0027352 0)
(0.997534 0.000332759 0)
(0.997587 0.00397656 0)
(0.998122 0.00192591 0)
(0.998767 0.00660618 0)
(0.999786 0.00669115 0)
(0.999307 0.0134939 0)
(1.00004 -0.00203523 0)
(0.99846 0.000343269 0)
(0.998317 -0.000730264 0)
(0.998249 0.000106949 0)
(0.998565 -0.000484438 0)
(0.998605 -0.000448687 0)
(0.998731 -0.000380254 0)
(0.998684 -0.000603999 0)
(0.99873 -0.000215701 0)
(0.998647 -0.000676018 0)
(0.998672 -8.87988e-05 0)
(0.998586 -0.000794369 0)
(0.998599 6.55716e-05 0)
(0.998498 -0.000921338 0)
(0.998508 0.000292046 0)
(0.998379 -0.00105134 0)
(0.998377 0.000563296 0)
(0.998222 -0.00110585 0)
(0.998196 0.000899206 0)
(0.998017 -0.00100704 0)
(0.997964 0.00133337 0)
(0.99778 -0.000654179 0)
(0.997733 0.00198414 0)
(0.997616 0.000115159 0)
(0.997688 0.00305351 0)
(0.997836 0.0012264 0)
(0.998378 0.00410657 0)
(0.999191 0.00167249 0)
(1.00026 0.00349272 0)
(0.999798 0.000112933 0)
(1.00001 -0.00190296 0)
(0.998588 0.000160862 0)
(0.998345 -0.000704838 0)
(0.998341 9.68123e-05 0)
(0.99858 -0.00065324 0)
(0.99869 -0.000304806 0)
(0.998762 -0.000663389 0)
(0.998772 -0.000356343 0)
(0.998763 -0.000558073 0)
(0.998734 -0.000366305 0)
(0.998701 -0.000465138 0)
(0.998675 -0.000441966 0)
(0.998624 -0.000343042 0)
(0.998593 -0.000543795 0)
(0.998528 -0.000171753 0)
(0.998486 -0.000666896 0)
(0.998402 9.64871e-05 0)
(0.998341 -0.000698478 0)
(0.998235 0.000455499 0)
(0.998153 -0.000557315 0)
(0.998034 0.000949865 0)
(0.997948 -0.000111426 0)
(0.997855 0.00169235 0)
(0.997844 0.000738937 0)
(0.99786 0.00274065 0)
(0.99803 0.00184528 0)
(0.998287 0.00346067 0)
(0.998732 0.00155178 0)
(0.99933 0.00188224 0)
(1.00153 0.000166806 0)
(1.00003 -0.0017469 0)
(0.998666 -5.23549e-05 0)
(0.998426 -0.000513564 0)
(0.998375 -3.37841e-05 0)
(0.998648 -0.000264702 0)
(0.998726 -0.000534139 0)
(0.998846 -0.00035058 0)
(0.998814 -0.000613122 0)
(0.998849 -0.000274751 0)
(0.998775 -0.000609116 0)
(0.998784 -0.000218095 0)
(0.998719 -0.000603066 0)
(0.998706 -0.000176842 0)
(0.998641 -0.000566732 0)
(0.998609 -0.000131163 0)
(0.998543 -0.000496426 0)
(0.998488 -6.53269e-05 0)
(0.99841 -0.000356493 0)
(0.998335 0.000105023 0)
(0.998243 -6.17689e-05 0)
(0.998165 0.000485582 0)
(0.998075 0.000483786 0)
(0.998035 0.00117335 0)
(0.998007 0.00130864 0)
(0.998074 0.00205651 0)
(0.998168 0.00238842 0)
(0.998391 0.00320318 0)
(0.998867 0.0038548 0)
(0.999995 0.00490361 0)
(1.00376 0.00611348 0)
(1.00003 -0.00144595 0)
(0.998787 -0.000379541 0)
(0.998493 -0.000309339 0)
(0.99847 -0.000165128 0)
(0.998682 -0.000272225 0)
(0.998791 -0.000431201 0)
(0.9989 -0.000509695 0)
(0.998889 -0.000392289 0)
(0.998908 -0.000606475 0)
(0.998849 -0.000226964 0)
(0.998846 -0.000723553 0)
(0.998791 -2.36388e-05 0)
(0.998772 -0.000879534 0)
(0.998711 0.000206484 0)
(0.998681 -0.00102903 0)
(0.99861 0.000488146 0)
(0.998567 -0.00109211 0)
(0.998487 0.000789233 0)
(0.998432 -0.000963327 0)
(0.998349 0.00119416 0)
(0.998289 -0.000549535 0)
(0.998226 0.00178448 0)
(0.998187 0.000163447 0)
(0.998193 0.00249542 0)
(0.998281 0.00100774 0)
(0.998488 0.00350746 0)
(0.998865 0.00250291 0)
(0.999411 0.00636946 0)
(1.0002 0.00742139 0)
(1.00285 0.0124457 0)
(1 -0.00156759 0)
(0.998907 -0.000265881 0)
(0.99856 -0.000581891 0)
(0.998528 0.000124213 0)
(0.998742 -0.000465626 0)
(0.998853 -0.000217444 0)
(0.99897 -0.000658803 0)
(0.998951 -0.000298067 0)
(0.998991 -0.00067144 0)
(0.998904 -0.000256167 0)
(0.998937 -0.000663969 0)
(0.998836 -0.000204923 0)
(0.998871 -0.000670322 0)
(0.998752 -0.000160856 0)
(0.998793 -0.000663815 0)
(0.998661 -8.62825e-05 0)
(0.998686 -0.000544187 0)
(0.998559 0.000103029 0)
(0.998566 -0.000236637 0)
(0.998452 0.000486632 0)
(0.998452 0.0003031 0)
(0.998363 0.00110248 0)
(0.998368 0.00105844 0)
(0.998347 0.00193587 0)
(0.998517 0.00203175 0)
(0.998727 0.00293834 0)
(0.999465 0.00309618 0)
(1.00063 0.00383798 0)
(1.00226 0.00394889 0)
(1.00291 0.00509899 0)
(0.999973 -0.000937875 0)
(0.999071 -0.000946944 0)
(0.998617 -9.08476e-06 0)
(0.998683 -0.000472361 0)
(0.998741 0.000256978 0)
(0.998971 -0.000884419 0)
(0.998986 0.000108834 0)
(0.999084 -0.0011091 0)
(0.999011 0.000218204 0)
(0.999043 -0.0011948 0)
(0.998953 0.000395522 0)
(0.998978 -0.00127551 0)
(0.998883 0.000570124 0)
(0.998896 -0.00134226 0)
(0.998803 0.000752428 0)
(0.998811 -0.00136124 0)
(0.998716 0.000953128 0)
(0.998724 -0.00123492 0)
(0.998631 0.00121668 0)
(0.99864 -0.000885453 0)
(0.998558 0.00168822 0)
(0.998581 -0.000232604 0)
(0.998535 0.00244361 0)
(0.998626 0.000811826 0)
(0.998709 0.00351645 0)
(0.998973 0.00184163 0)
(0.99928 0.00413578 0)
(0.999807 0.00132213 0)
(1.00074 0.00210996 0)
(1.00408 -0.000455409 0)
(1.00001 -0.00147062 0)
(0.999134 -0.000249618 0)
(0.998757 -0.000853519 0)
(0.998701 0.000479367 0)
(0.998852 -0.000872321 0)
(0.998988 0.000351773 0)
(0.999095 -0.00114506 0)
(0.999117 0.000234379 0)
(0.999128 -0.0011889 0)
(0.999084 0.00024317 0)
(0.999069 -0.00112503 0)
(0.999021 0.00028952 0)
(0.999 -0.00103525 0)
(0.998946 0.000361264 0)
(0.998925 -0.000928264 0)
(0.998867 0.000458687 0)
(0.998843 -0.000772494 0)
(0.998786 0.00062228 0)
(0.998772 -0.000481161 0)
(0.998738 0.00096391 0)
(0.998739 3.60808e-05 0)
(0.998739 0.00157727 0)
(0.998781 0.000880645 0)
(0.998841 0.00254338 0)
(0.998954 0.00202605 0)
(0.999108 0.00362706 0)
(0.999398 0.00302821 0)
(1.00011 0.00442485 0)
(1.00182 0.00447183 0)
(1.00623 0.00768859 0)
(1.00002 -0.000554995 0)
(0.999235 -0.0013359 0)
(0.998881 -2.46645e-06 0)
(0.99879 -0.000579451 0)
(0.998921 0.000455856 0)
(0.999049 -0.000848968 0)
(0.999166 0.000285309 0)
(0.999189 -0.00106322 0)
(0.999205 0.000229125 0)
(0.999164 -0.00111478 0)
(0.999152 0.000284005 0)
(0.999106 -0.00105789 0)
(0.999086 0.000363444 0)
(0.999029 -0.000958909 0)
(0.99901 0.00043593 0)
(0.998957 -0.000835598 0)
(0.998938 0.000544595 0)
(0.998905 -0.000620839 0)
(0.998898 0.000819287 0)
(0.998886 -0.000212427 0)
(0.998904 0.00130463 0)
(0.998933 0.000473706 0)
(0.999002 0.0020581 0)
(0.9991 0.00143461 0)
(0.999245 0.00314524 0)
(0.999441 0.0029399 0)
(0.999757 0.00504582 0)
(1.00049 0.00527611 0)
(1.00224 0.00681153 0)
(1.00672 0.00522447 0)
(1.00001 -0.00114169 0)
(0.999343 -0.000222773 0)
(0.999007 -0.00114133 0)
(0.998904 0.000571885 0)
(0.998993 -0.00101106 0)
(0.999124 0.00073235 0)
(0.999236 -0.00143862 0)
(0.999267 0.000629537 0)
(0.999286 -0.00168294 0)
(0.999251 0.000687083 0)
(0.99924 -0.00167105 0)
(0.999195 0.000804223 0)
(0.999176 -0.00155233 0)
(0.999121 0.000901774 0)
(0.999105 -0.00135346 0)
(0.999053 0.00101448 0)
(0.999043 -0.00107669 0)
(0.999015 0.00118598 0)
(0.999022 -0.00071984 0)
(0.999031 0.00146915 0)
(0.999074 -0.000184397 0)
(0.999127 0.00206379 0)
(0.99922 0.000653803 0)
(0.999365 0.00294251 0)
(0.999613 0.00173136 0)
(0.999973 0.00428612 0)
(1.00043 0.00400551 0)
(1.00098 0.00821787 0)
(1.00189 0.00962613 0)
(1.00518 0.0137444 0)
(0.999944 -0.000621651 0)
(0.999432 -0.00104135 0)
(0.999037 -0.000379563 0)
(0.998991 -0.000339329 0)
(0.999025 -1.07639e-06 0)
(0.999175 -0.000289049 0)
(0.999249 -0.00025996 0)
(0.999325 -0.000541538 0)
(0.999321 -0.000464768 0)
(0.999328 -0.000553382 0)
(0.999288 -0.000419014 0)
(0.999282 -0.00044974 0)
(0.999228 -0.000311468 0)
(0.999218 -0.000332131 0)
(0.999163 -0.000150604 0)
(0.999163 -0.000170517 0)
(0.999113 0.000109947 0)
(0.999134 9.44141e-05 0)
(0.99911 0.000456014 0)
(0.99917 0.000496111 0)
(0.999218 0.000951036 0)
(0.999322 0.00112152 0)
(0.999431 0.00176965 0)
(0.999595 0.00219222 0)
(0.999878 0.00297538 0)
(1.00043 0.00330481 0)
(1.0015 0.00383925 0)
(1.00299 0.00390654 0)
(1.0048 0.00422699 0)
(1.0045 0.00365368 0)
(0.99986 -0.000526211 0)
(0.999691 -0.00089763 0)
(0.999104 -0.000511251 0)
(0.999257 -0.000270906 0)
(0.999027 -0.000111245 0)
(0.999387 -0.000238046 0)
(0.999239 -0.000298648 0)
(0.999523 -0.000450347 0)
(0.999331 -0.000413656 0)
(0.999533 -0.000507039 0)
(0.999314 -0.000320482 0)
(0.999479 -0.000454048 0)
(0.999263 -0.000164859 0)
(0.999408 -0.000345361 0)
(0.999212 1.94183e-05 0)
(0.999359 -0.000181485 0)
(0.999186 0.000242038 0)
(0.999342 8.6029e-05 0)
(0.999215 0.000550812 0)
(0.999404 0.000550857 0)
(0.999353 0.00102736 0)
(0.999612 0.00109376 0)
(0.999678 0.00161641 0)
(1.00001 0.00177349 0)
(1.00013 0.00239467 0)
(1.00051 0.00275699 0)
(1.00075 0.00375393 0)
(1.00125 0.00438076 0)
(1.00168 0.0054559 0)
(1.00473 0.00596286 0)
(0.999929 -0.00088262 0)
(0.999592 -0.00037847 0)
(0.99924 -0.000939186 0)
(0.999195 0.000137594 0)
(0.999163 -0.000595635 0)
(0.999304 0.000255178 0)
(0.999355 -0.000789836 0)
(0.999462 8.10265e-06 0)
(0.99945 -0.000974091 0)
(0.999498 -5.88411e-05 0)
(0.999435 -0.000907496 0)
(0.999466 3.31898e-05 0)
(0.999388 -0.000734992 0)
(0.999412 0.000196774 0)
(0.999338 -0.000511173 0)
(0.99937 0.000415716 0)