/*--------------------------------*- C++ -*----------------------------------*\
| =========                 |                                                 |
| \\      /  F ield         | OpenFOAM: The Open Source CFD Toolbox           |
|  \\    /   O peration     | Version:  v2006                                 |
|   \\  /    A nd           | Website:  www.openfoam.com                      |
|    \\/     M anipulation  |                                                 |
\*---------------------------------------------------------------------------*/
FoamFile
{
    version     2.0;
    format      ascii;
    class       volScalarField;
    location    "1.4";
    object      p;
}
// * * * * * * * * * * * * * * * * * * * * * * * * * * * * * * * * * * * * * //

dimensions      [0 2 -2 0 0 0 0];


internalField   nonuniform List<scalar> 
26400
(
1.3817e-08
0.00221651
0.00207854
0.00229625
0.00173047
0.00201076
0.00164036
0.00197366
0.00167061
0.00198566
0.00173597
0.0020368
0.0018252
0.00211792
0.00194121
0.00224727
0.00211412
0.00245159
0.00238492
0.00278192
0.00281255
0.00330626
0.00348318
0.00413722
0.00453943
0.00546885
0.00628017
0.00785441
0.0095978
0.0122287
3.31997e-07
0.00221656
0.00207899
0.0022963
0.00173113
0.00201077
0.00164113
0.0019736
0.00167152
0.00198554
0.00173704
0.00203658
0.00182645
0.00211751
0.00194269
0.00224656
0.00211594
0.00245038
0.00238726
0.00277974
0.00281567
0.00330189
0.00348774
0.00412679
0.0045478
0.00543585
0.00629893
0.00770946
0.00958638
0.0115409
1.3014e-06
0.00221682
0.00207991
0.00229646
0.0017324
0.00201072
0.00164259
0.00197338
0.00167329
0.00198518
0.00173911
0.002036
0.00182885
0.00211659
0.00194551
0.00224512
0.00211931
0.00244817
0.00239128
0.00277632
0.00282037
0.0032963
0.0034931
0.00411702
0.00455429
0.00541767
0.00629523
0.00763107
0.00946979
0.0108813
3.42464e-06
0.00221766
0.00208116
0.00229695
0.00173402
0.00201081
0.00164449
0.00197324
0.00167554
0.00198483
0.0017417
0.00203535
0.0018318
0.00211547
0.00194891
0.00224332
0.00212325
0.00244534
0.00239589
0.00277185
0.00282569
0.0032891
0.00349898
0.00410447
0.00455984
0.00538828
0.00629538
0.00750701
0.00924389
0.0103283
7.19569e-06
0.00221893
0.00208272
0.00229765
0.00173596
0.00201093
0.00164671
0.00197304
0.00167811
0.00198432
0.00174459
0.00203442
0.00183505
0.00211391
0.00195261
0.00224088
0.00212749
0.00244161
0.00240079
0.00276612
0.00283119
0.00328028
0.00350464
0.00408979
0.00456281
0.00536002
0.00626335
0.00741604
0.00889543
0.00988016
1.27883e-05
0.0022203
0.00208459
0.00229826
0.00173814
0.0020108
0.00164915
0.0019725
0.00168088
0.00198337
0.00174767
0.00203294
0.00183852
0.00211166
0.0019566
0.00223758
0.00213209
0.00243681
0.00240605
0.00275919
0.00283678
0.00327029
0.00350973
0.00407665
0.00456182
0.00534747
0.0061966
0.00733935
0.0085127
0.00932883
2.0041e-05
0.00222148
0.00208669
0.00229855
0.0017405
0.00201021
0.00165173
0.00197147
0.0016838
0.00198187
0.00175095
0.00203083
0.00184229
0.00210866
0.00196102
0.00223336
0.00213727
0.00243087
0.00241196
0.00275089
0.0028429
0.00325845
0.00351492
0.00406016
0.00456053
0.00530466
0.00617045
0.00716792
0.0083526
0.00891628
2.86161e-05
0.00222235
0.00208901
0.00229844
0.00174305
0.00200912
0.00165448
0.00196991
0.00168694
0.00197982
0.00175453
0.0020281
0.00184649
0.00210495
0.00196603
0.00222827
0.00214311
0.00242389
0.00241852
0.00274139
0.00284947
0.0032447
0.00351933
0.00404233
0.00455815
0.00526901
0.00611605
0.00700391
0.00803047
0.00847238
3.81715e-05
0.00222294
0.00209157
0.00229797
0.00174587
0.00200755
0.00165748
0.00196785
0.00169042
0.00197723
0.00175857
0.00202478
0.00185126
0.00210053
0.00197169
0.00222235
0.00214963
0.00241599
0.00242554
0.00273113
0.00285601
0.00323257
0.00352104
0.00402742
0.00453666
0.00526633
0.00599478
0.00690378
0.00738863
0.00798233
4.84602e-05
0.00222329
0.0020944
0.00229722
0.00174905
0.00200555
0.00166084
0.00196529
0.00169436
0.00197408
0.00176319
0.00202078
0.00185673
0.00209528
0.00197816
0.00221541
0.00215697
0.0024069
0.0024332
0.00271903
0.00286292
0.00321706
0.0035233
0.0040065
0.00452761
0.0052232
0.00592321
0.00677307
0.00706959
0.0074368
5.93518e-05
0.00222348
0.00209754
0.00229624
0.00175268
0.00200312
0.00166463
0.00196221
0.00169885
0.00197032
0.00176847
0.00201606
0.00186295
0.00208918
0.00198539
0.00220752
0.0021649
0.0023969
0.00244113
0.00270638
0.00286911
0.00320132
0.00352428
0.00398263
0.00451676
0.00515313
0.00589091
0.00660725
0.0071525
0.00681559
7.08121e-05
0.0022235
0.00210105
0.00229504
0.00175686
0.00200025
0.00166892
0.00195855
0.00170397
0.00196587
0.00177449
0.00201053
0.00186997
0.00208216
0.00199341
0.00219867
0.00217333
0.00238599
0.0024491
0.0026934
0.00287399
0.00318595
0.00352203
0.00395839
0.0044965
0.00509772
0.00582295
0.00643366
0.00699318
0.00607562
8.28707e-05
0.0022233
0.00210495
0.00229364
0.00176167
0.0019969
0.00167377
0.00195425
0.00170978
0.00196066
0.0017813
0.00200415
0.00187779
0.00207423
0.00200206
0.00218901
0.002182
0.00237429
0.00245658
0.00268049
0.00287687
0.00317114
0.00351668
0.00393658
0.00446371
0.0050535
0.00571317
0.00625141
0.00653245
0.00565983
9.56008e-05
0.00222281
0.00210928
0.00229198
0.0017672
0.00199302
0.00167923
0.00194922
0.00171633
0.00195463
0.00178892
0.00199692
0.00188634
0.00206553
0.00201112
0.00217889
0.00219058
0.00236315
0.00246272
0.00266841
0.00287666
0.00315726
0.00350233
0.00392267
0.0044199
0.00500386
0.00559159
0.00606195
0.00584709
0.00507306
0.00010911
0.00222188
0.00211407
0.00229004
0.00177356
0.00198853
0.00168538
0.00194338
0.00172368
0.00194772
0.00179737
0.00198879
0.00189559
0.00205607
0.00202052
0.00216814
0.00219897
0.00235203
0.00246747
0.00265669
0.00287467
0.00314219
0.0034897
0.00388483
0.00438416
0.00491768
0.00547679
0.00589175
0.00592353
0.00466978
0.000123534
0.00222034
0.00211936
0.00228775
0.00178085
0.00198337
0.00169227
0.00193665
0.00173184
0.0019399
0.00180664
0.00197979
0.00190538
0.00204601
0.00202989
0.00215742
0.00220637
0.00234165
0.00247002
0.00264618
0.00286981
0.00312653
0.00347736
0.00384657
0.00434198
0.00481906
0.00534703
0.00567888
0.00575299
0.00393491
0.000139032
0.00221799
0.00212518
0.00228507
0.00178917
0.00197751
0.00169991
0.001929
0.00174078
0.00193121
0.00181657
0.00197022
0.00191528
0.00203616
0.00203844
0.00214816
0.00221152
0.00233345
0.00246875
0.0026385
0.00285886
0.00311445
0.00344396
0.00382313
0.0042711
0.00473806
0.00517079
0.00541251
0.00523231
0.00368823
0.000155808
0.00221458
0.00213155
0.00228195
0.00179862
0.00197088
0.00170833
0.00192041
0.00175045
0.0019217
0.001827
0.00196026
0.00192501
0.00202683
0.00204586
0.00214039
0.00221431
0.00232714
0.00246474
0.00263177
0.00284559
0.00310606
0.00340701
0.00379098
0.00419157
0.00464685
0.00498863
0.0051039
0.00437148
0.0031827
0.000174087
0.00220982
0.00213851
0.00227833
0.00180929
0.00196345
0.00171752
0.00191083
0.00176075
0.00191143
0.0018378
0.00195002
0.0019342
0.00201737
0.00205187
0.00213346
0.00221528
0.0023206
0.00246067
0.00262129
0.00283481
0.00307775
0.00338634
0.00373189
0.00411971
0.0045056
0.00482484
0.00494632
0.00461474
0.00283719
0.000194055
0.00220343
0.00214602
0.00227423
0.0018212
0.00195534
0.00172731
0.00190055
0.00177133
0.00190102
0.00184822
0.00194229
0.00194243
0.00201057
0.00205576
0.00212852
0.00221399
0.00231489
0.00245463
0.00261053
0.00282468
0.00305233
0.00336088
0.00366298
0.00403579
0.00434865
0.00463779
0.0047081
0.00448218
0.00200631
0.00021618
0.00219497
0.00215414
0.0022695
0.00183453
0.00194634
0.0017378
0.0018893
0.00178232
0.00188978
0.00185825
0.00192999
0.00195026
0.00200375
0.00205813
0.00212447
0.00221037
0.00231023
0.00244376
0.00260065
0.00280272
0.00303477
0.00331257
0.00361065
0.00392794
0.00420663
0.00438129
0.0043439
0.00391123
0.00209259
0.000240453
0.00218418
0.00216272
0.00226436
0.00184909
0.00193701
0.00174839
0.00187811
0.0017926
0.00188094
0.00186636
0.00192612
0.00195309
0.00200305
0.00205429
0.00212757
0.00220011
0.00231524
0.00242407
0.00260421
0.00276352
0.00302124
0.00323682
0.00355643
0.00380284
0.00406986
0.00411093
0.0038898
0.00284005
0.00173793
0.000267581
0.00217049
0.00217182
0.00225865
0.00186506
0.00192714
0.00175924
0.00186635
0.00180238
0.00187154
0.00187492
0.00191929
0.00195727
0.00199771
0.00205671
0.00211931
0.00220317
0.00229836
0.00242889
0.00257046
0.00276296
0.00295974
0.00321411
0.00345018
0.00369182
0.00383903
0.00390229
0.00378025
0.00343883
0.00147149
0.000297788
0.00215356
0.00218127
0.00225242
0.00188236
0.0019169
0.00176998
0.00185411
0.00181071
0.00186107
0.00188162
0.00191374
0.00196002
0.00199309
0.00205698
0.00211265
0.00220016
0.00228551
0.00242048
0.0025536
0.00274328
0.00292379
0.00316038
0.00336146
0.00356053
0.00364715
0.00363495
0.00343862
0.00307773
0.00120441
0.000331147
0.00213316
0.00219071
0.00224616
0.00190045
0.00190795
0.00177966
0.0018459
0.00181554
0.0018608
0.00188035
0.00191889
0.00195294
0.00200214
0.00204406
0.00212473
0.00217889
0.00230024
0.00237571
0.00255941
0.00267617
0.0029129
0.00304676
0.00329432
0.00340074
0.0035118
0.00331083
0.00283756
0.0016128
0.000917964
0.000368359
0.00210874
0.00220009
0.00223964
0.00191937
0.0018992
0.00178921
0.00183606
0.00182049
0.00185454
0.00188346
0.00191346
0.00195769
0.00199206
0.0020551
0.00210562
0.00219586
0.00226873
0.00239805
0.0025014
0.00267317
0.00282608
0.00301657
0.00315469
0.00325784
0.00324589
0.00313651
0.00290343
0.00251889
0.00066033
0.000410128
0.00207983
0.00220924
0.00223283
0.00193887
0.00188936
0.00179772
0.00182786
0.00182312
0.00185215
0.00188403
0.00191232
0.001956
0.0019851
0.00205142
0.00209419
0.00219075
0.00224513
0.00239179
0.0024676
0.00266639
0.00275814
0.00296465
0.00302237
0.00310532
0.00298396
0.00281593
0.0025318
0.0022671
0.000475367
0.000455387
0.00204759
0.00221704
0.00222805
0.00195777
0.00188653
0.00180082
0.00182635
0.00181665
0.00186102
0.00187154
0.00193038
0.0019365
0.00201742
0.00201692
0.00213049
0.00214082
0.00228339
0.00232186
0.00248983
0.00256351
0.00274267
0.00283292
0.00295422
0.00292604
0.00278529
0.00232875
0.0016002
0.000613445
0.000984377
0.000505462
0.00201022
0.0022242
0.00222236
0.00197996
0.00188154
0.00180775
0.00181872
0.00181939
0.00185541
0.00187592
0.00192309
0.00193977
0.00200322
0.00201696
0.0021146
0.00213747
0.00226148
0.00230736
0.00245719
0.00252923
0.00268704
0.00275062
0.00284489
0.00279008
0.00262187
0.00209635
0.00126489
0.000193075
0.000635213
0.000561757
0.00196564
0.0022286
0.00221473
0.00199892
0.00187984
0.00181281
0.00181193
0.00182277
0.00184808
0.00188462
0.00191179
0.00195346
0.00198579
0.00203796
0.00208573
0.00215486
0.00221979
0.00231157
0.00239829
0.00250199
0.00259412
0.00267222
0.00269035
0.0026624
0.00249922
0.00223351
0.00180422
0.00121204
-0.00092506
0.000621027
0.00193003
0.00222608
0.00222135
0.00201409
0.00188268
0.00181401
0.00180754
0.00182223
0.00184382
0.00188718
0.00190601
0.0019567
0.00197627
0.00204167
0.0020682
0.00215235
0.00219121
0.00229387
0.00234983
0.00245128
0.00250889
0.00257056
0.00256929
0.00252519
0.00240548
0.00220683
0.00171391
0.000618514
-0.00312885
0.000688241
0.00187587
0.0022259
0.00219475
0.00204186
0.00188829
0.00182023
0.00180434
0.00182221
0.00184212
0.00188344
0.00190756
0.00194745
0.00198003
0.0020264
0.00207641
0.00213084
0.00218985
0.00225534
0.00232122
0.00238474
0.0024333
0.00247482
0.00245872
0.00237429
0.00216263
0.00178651
0.00123648
0.000439581
-0.00216732
0.000753733
0.00184436
0.00220506
0.00222213
0.00203802
0.00190681
0.00180972
0.00181931
0.00180184
0.00186034
0.00185778
0.00193135
0.00191884
0.00200578
0.00198899
0.00208812
0.00208814
0.00217838
0.00219723
0.00227523
0.00229936
0.00235235
0.00236969
0.00236029
0.00221628
0.00197959
0.00126886
7.28902e-05
-0.00157815
-0.00231675
0.0008327
0.00179348
0.00219274
0.00218289
0.00207773
0.00190619
0.0018316
0.00180375
0.00182003
0.00183981
0.00187872
0.0019077
0.00194247
0.00197926
0.00201562
0.0020582
0.00209755
0.00213282
0.00217191
0.00220294
0.00223279
0.00224572
0.00224356
0.00218906
0.00206647
0.00183957
0.00149747
0.00101471
7.46225e-05
-0.0031681
0.000903656
0.00176646
0.00215962
0.00220026
0.00207818
0.00192448
0.00183441
0.0018062
0.00181413
0.00183543
0.00187222
0.00190137
0.00193489
0.00196868
0.00200237
0.00204087
0.00207627
0.00210951
0.00213522
0.00215057
0.00215424
0.00212945
0.00209765
0.00201944
0.00192061
0.00175126
0.0014793
0.000764104
-0.000924292
-0.00530294
0.000982826
0.00173478
0.00212265
0.0021854
0.00209366
0.00193701
0.00184676
0.00180992
0.00181946
0.00183224
0.00187055
0.00189615
0.00192942
0.00196443
0.00199679
0.00203389
0.00206133
0.00207318
0.00208696
0.00207948
0.00206279
0.0020153
0.00195216
0.00184231
0.00170425
0.00149966
0.00119098
0.000452818
-0.00127714
-0.00570701
0.00107072
0.00171497
0.00208138
0.00215434
0.0021061
0.00194694
0.00185974
0.00181495
0.00182033
0.00182641
0.00186301
0.00188778
0.0019207
0.00195372
0.0019833
0.00201474
0.00203501
0.00204279
0.00204168
0.00201104
0.00197185
0.00189959
0.00181306
0.00165678
0.00141668
0.00104722
0.000591768
2.8748e-05
-0.000882633
-0.00413457
0.00111115
0.00173409
0.00203602
0.00217504
0.00207109
0.00199715
0.0018546
0.00185331
0.00180147
0.0018413
0.00183813
0.00189008
0.00189942
0.0019451
0.00196059
0.00198861
0.00200265
0.00200217
0.00199131
0.00194929
0.00187048
0.0017812
0.00164695
0.0015003
0.00119855
0.00066336
-0.000419665
-0.00191454
-0.00380207
-0.00352917
0.00123663
0.00168582
0.00200425
0.00211015
0.00210014
0.00198206
0.00189501
0.00184649
0.0018227
0.00182161
0.00184353
0.00187206
0.00189805
0.00192963
0.0019521
0.001962
0.00197173
0.00195298
0.00192776
0.00186611
0.00178039
0.00163902
0.00145149
0.00122787
0.000997835
0.000719445
0.000386418
-9.4685e-06
-0.000529049
-0.00342499
0.00125493
0.00173278
0.00196199
0.00212957
0.0020658
0.00202656
0.00188396
0.00187318
0.00180889
0.00182637
0.00182651
0.00186181
0.00187962
0.0019062
0.00192697
0.00193452
0.00193883
0.00191485
0.00185906
0.00180056
0.00169742
0.00158187
0.0014144
0.00121603
0.000819771
7.99431e-05
-0.00117941
-0.00281213
-0.00473135
-0.00412659
0.00137719
0.00168679
0.00194057
0.00206609
0.00208542
0.00201158
0.00193493
0.00187787
0.001835
0.0018117
0.00182349
0.00184151
0.00186394
0.00188472
0.00189978
0.00189676
0.0018853
0.00184976
0.00179955
0.00172754
0.00163007
0.00149489
0.00131027
0.00105511
0.000740297
0.000400204
6.663e-05
-0.000378444
-0.00160804
-0.00565061
0.00144611
0.00168725
0.00192213
0.00204266
0.00208056
0.00201471
0.00194829
0.00187681
0.00183822
0.00180788
0.0018115
0.00182497
0.00184068
0.00186569
0.0018726
0.00186494
0.00184646
0.00179829
0.00174837
0.00165955
0.00155741
0.0014004
0.00121719
0.000985202
0.000720769
0.000342718
-0.00025664
-0.0014007
-0.00363836
-0.00866427
0.00147162
0.00173013
0.00190763
0.00201607
0.00205354
0.00202245
0.00196155
0.00190281
0.00185395
0.00181987
0.00180695
0.00180727
0.0018165
0.00182074
0.00182711
0.00181623
0.0017943
0.00175006
0.00169044
0.00159787
0.00147909
0.00131078
0.00110355
0.000845099
0.00053224
9.50062e-05
-0.000595941
-0.00182129
-0.00415749
-0.00918149
0.00161063
0.00168736
0.00189161
0.00198606
0.00204165
0.00200429
0.00195849
0.00190266
0.00185709
0.0018193
0.00179825
0.00179815
0.00179271
0.00179714
0.00179814
0.00177414
0.0017534
0.00169814
0.00163598
0.00153251
0.00140989
0.00122381
0.000975325
0.000613934
0.000162214
-0.000370308
-0.000944948
-0.0017249
-0.00326758
-0.00790013
0.00154868
0.00182973
0.00186562
0.0020029
0.00198316
0.0020316
0.00192761
0.00193457
0.00184538
0.00183609
0.00177797
0.00177604
0.00175453
0.00175056
0.00174876
0.00173249
0.00171582
0.00166346
0.00157538
0.00148189
0.00132882
0.00116185
0.00087814
0.000490728
-0.000234498
-0.00134469
-0.00288082
-0.00473873
-0.00681078
-0.00588339
0.00171551
0.00176823
0.001873
0.00194227
0.00198202
0.00198897
0.00196341
0.00192172
0.00188384
0.00183687
0.00178369
0.00174439
0.00171844
0.00169789
0.00169073
0.00167085
0.00164447
0.00159073
0.00151789
0.00141197
0.00126999
0.0010736
0.000805144
0.000450039
2.77319e-05
-0.0004481
-0.00103083
-0.00197939
-0.00404801
-0.00928519
0.00172454
0.00178756
0.00189415
0.00194676
0.00197983
0.00196969
0.00194621
0.0019108
0.00186858
0.00181893
0.00176938
0.00174067
0.00169747
0.00166367
0.00164301
0.00160785
0.00158445
0.00152662
0.00146264
0.00134964
0.00121462
0.00102062
0.000789647
0.000473171
5.77138e-05
-0.000613379
-0.00167738
-0.00348095
-0.00654817
-0.012411
0.00174947
0.00186677
0.00191006
0.00193498
0.00195064
0.00194151
0.00192645
0.00190367
0.00187772
0.00182259
0.00176997
0.00170989
0.00164707
0.00160781
0.00157633
0.00155837
0.00152209
0.00147451
0.00139737
0.00129534
0.00115267
0.000972502
0.000732895
0.000412094
-5.79958e-05
-0.000753807
-0.0018319
-0.00357967
-0.00669359
-0.0127135
0.00183859
0.00187439
0.00190687
0.00191898
0.00192636
0.00192269
0.00190298
0.00189163
0.00186828
0.00181922
0.00174361
0.00166869
0.00160842
0.00156115
0.00153332
0.0015068
0.00147
0.00141331
0.00133554
0.00122971
0.00108838
0.0009025
0.000655975
0.000316039
-0.000170338
-0.000891837
-0.00201679
-0.00389303
-0.00724506
-0.0135859
0.00184911
0.00191009
0.00194
0.00193725
0.00192254
0.00190061
0.00187771
0.00186098
0.00183725
0.00178702
0.0017197
0.00165132
0.00158574
0.00153072
0.00148921
0.00145452
0.00141024
0.00134867
0.00126609
0.00115755
0.00101279
0.000820364
0.000561631
0.000205761
-0.000303319
-0.00106614
-0.00227506
-0.00428714
-0.00780166
-0.0142895
0.00190365
0.00195147
0.00195963
0.00193897
0.00191035
0.00187791
0.00184599
0.0018219
0.00179386
0.00174851
0.00168987
0.00162818
0.00156281
0.00149942
0.00144578
0.00140032
0.00134814
0.00128031
0.00119194
0.00107837
0.000927979
0.000727084
0.00045528
7.98692e-05
-0.000461294
-0.0012773
-0.00256251
-0.00466771
-0.00827695
-0.0148147
0.00194545
0.001979
0.00197403
0.00194347
0.00190391
0.00186077
0.00181828
0.0017858
0.001754
0.00170991
0.00165537
0.00159827
0.00153496
0.00146724
0.0014039
0.00134705
0.00128575
0.00121003
0.00111423
0.000993346
0.000835271
0.00062401
0.000336894
-6.21184e-05
-0.000637703
-0.00150029
-0.00284177
-0.00500795
-0.00866196
-0.0152172
0.00198595
0.00200885
0.00199397
0.00195123
0.00189907
0.00184395
0.00179079
0.00174927
0.00171258
0.00166829
0.00161547
0.00156095
0.0015001
0.00143086
0.00136023
0.00129312
0.00122211
0.00113752
0.00103268
0.000902184
0.00073398
0.000510301
0.000205852
-0.000217154
-0.000823254
-0.00172159
-0.00310196
-0.00530309
-0.00898536
-0.0155617
0.00202731
0.00204098
0.00201161
0.00195524
0.00189062
0.00182514
0.00176285
0.00171229
0.00167016
0.00162454
0.00157252
0.00151888
0.00145964
0.00138977
0.00131372
0.00123745
0.00115684
0.00106252
0.000947512
0.000805612
0.00062531
0.00038776
6.62766e-05
-0.000378122
-0.00100901
-0.00193399
-0.00333889
-0.00555862
-0.00925223
-0.0158353
0.00206637
0.00206996
0.00202918
0.00195956
0.00188212
0.0018058
0.00173474
0.00167653
0.00162904
0.00158104
0.00152809
0.00147391
0.00141465
0.0013439
0.00126339
0.00117903
0.00108893
0.000984678
0.000858796
0.000704558
0.000510923
0.000259224
-7.79828e-05
-0.000540322
-0.00119079
-0.00213509
-0.00355532
-0.00578673
-0.0094901
-0.0160846
0.00210338
0.00209829
0.00204634
0.00196419
0.00187378
0.00178593
0.00170585
0.00164012
0.00158731
0.0015365
0.00148199
0.00142594
0.00136535
0.00129313
0.00120884
0.00111703
0.00101758
0.000903355
0.000766482
0.000599618
0.000392422
0.000126918
-0.000224286
-0.000701399
-0.00136726
-0.00232528
-0.00375676
-0.00599694
-0.00970679
-0.0163094
0.00213794
0.00212568
0.00206302
0.00196936
0.00186586
0.00176565
0.00167597
0.00160253
0.00154438
0.00149065
0.00143424
0.00137557
0.00131259
0.00123809
0.00114998
0.00105119
0.00094277
0.000818682
0.000671065
0.000492048
0.000271839
-6.71416e-06
-0.000370398
-0.000859743
-0.00153703
-0.00250532
-0.00394589
-0.00619401
-0.00990955
-0.0165133
0.00216746
0.00215009
0.00208096
0.00197599
0.00185851
0.00174532
0.00164532
0.00156421
0.0015003
0.00144356
0.00138474
0.00132316
0.00125677
0.00117935
0.00108706
0.000981737
0.000864539
0.000730906
0.000572981
0.000382819
0.000150501
-0.000139985
-0.000514824
-0.00101414
-0.0017
-0.00267579
-0.00412327
-0.00637799
-0.0101016
-0.0167162
0.00219578
0.00217336
0.00209667
0.00198081
0.00185059
0.00172516
0.00161494
0.00152569
0.00145555
0.00139501
0.00133344
0.00126862
0.00119829
0.00111718
0.0010205
0.000908793
0.000783136
0.000640269
0.000472763
0.000272504
2.93941e-05
-0.000271867
-0.000656601
-0.00116387
-0.00185623
-0.0028374
-0.00428933
-0.00654776
-0.0102762
-0.0168992
0.00222439
0.00219585
0.00210857
0.00198251
0.00184169
0.00170521
0.0015851
0.00148712
0.00141027
0.00134504
0.00128037
0.00121189
0.00113738
0.00105184
0.00095065
0.000832679
0.000699074
0.000547304
0.000371003
0.000161667
-9.08725e-05
-0.000401594
-0.000794527
-0.00130837
-0.00200574
-0.00299079
-0.00444507
-0.00670344
-0.0104267
-0.0170398
0.00224925
0.0022155
0.00212021
0.00198415
0.00183241
0.0016851
0.00155522
0.00144863
0.00136438
0.00129389
0.00122555
0.00115325
0.00107417
0.000983873
0.000877864
0.000754009
0.000612922
0.00045283
0.000268284
5.08986e-05
-0.00020979
-0.000528279
-0.000927947
-0.00144715
-0.0021484
-0.0031359
-0.00459114
-0.00684913
-0.0105724
-0.0171908
0.00227045
0.00223263
0.00213127
0.00198576
0.00182276
0.00166445
0.00152471
0.00140955
0.00131788
0.00124176
0.0011692
0.00109288
0.001009
0.000913701
0.00080267
0.000673265
0.00052529
0.000357533
0.000165326
-5.92451e-05
-0.00032661
-0.000651243
-0.00105635
-0.00157985
-0.00228413
-0.0032734
-0.00472955
-0.00698803
-0.0107122
-0.0173317
0.00229034
0.00224861
0.00213982
0.00198556
0.00181235
0.00164323
0.00149367
0.00136996
0.00127093
0.00118879
0.00111161
0.00103096
0.000942271
0.000841765
0.000725657
0.000590914
0.000436758
0.000262034
6.292e-05
-0.000167944
-0.000440724
-0.000770198
-0.00117952
-0.00170641
-0.00241302
-0.00340375
-0.00486076
-0.00711986
-0.0108441
-0.0174625
0.00230734
0.00226195
0.00214693
0.00198428
0.00180111
0.00162148
0.00146224
0.00133009
0.00122364
0.00113527
0.00105306
0.00096792
0.000874378
0.000768656
0.000647384
0.000507541
0.000347818
0.000166959
-3.83456e-05
-0.000274537
-0.000551736
-0.000884945
-0.00129745
-0.00182681
-0.00253506
-0.00352661
-0.00498394
-0.00724328
-0.0109679
-0.017586
0.00232141
0.00227279
0.00215238
0.0019818
0.00178897
0.00159921
0.00143051
0.00129005
0.00117617
0.00108141
0.000993898
0.000904089
0.000805696
0.000694839
0.000568435
0.000423715
0.000258976
7.27775e-05
-0.000137753
-0.000378446
-0.000659289
-0.000995372
-0.00141016
-0.00194114
-0.00265021
-0.00364167
-0.00509822
-0.00735658
-0.0110816
-0.0177042
0.00233411
0.00228209
0.00215537
0.00197701
0.00177534
0.00157622
0.00139858
0.00124999
0.00112875
0.00102744
0.000934411
0.000839749
0.000736605
0.00062077
0.000489434
0.000340041
0.000170812
-1.99336e-05
-0.000234762
-0.000479242
-0.000763082
-0.0011014
-0.00151772
-0.00204956
-0.00275867
-0.00374926
-0.00520396
-0.00745966
-0.0111814
-0.0178018
0.00234466
0.00228909
0.00215627
0.00197031
0.00176033
0.00155256
0.00136648
0.00120999
0.00108146
0.00097355
0.000874889
0.000775308
0.000667509
0.000546926
0.000410904
0.000257109
8.3815e-05
-0.000110664
-0.000328978
-0.000576558
-0.000862833
-0.00120283
-0.00162009
-0.00215218
-0.00286077
-0.00384996
-0.0053023
-0.00755493
-0.011274
-0.0178951
0.00235245
0.00229383
0.00215559
0.00196268
0.00174479
0.00152859
0.0013342
0.00116997
0.00103434
0.00091996
0.000815647
0.000711117
0.000598751
0.000473687
0.000333299
0.000175437
-1.38532e-06
-0.000198981
-0.00042012
-0.000670174
-0.000958365
-0.00129959
-0.00171735
-0.00224928
-0.0029571
-0.00394498
-0.00539556
-0.00764615
-0.0113629
-0.0179829
0.00235714
0.0022961
0.00215355
0.0019545
0.00172903
0.00150452
0.00130189
0.00113011
0.000987589
0.000866925
0.000756981
0.000647539
0.000530744
0.000401524
0.000257169
9.56893e-05
-8.42337e-05
-0.000284468
-0.000507908
-0.000759896
-0.00104955
-0.00139163
-0.00180963
-0.00234123
-0.00304827
-0.00403505
-0.00548453
-0.00773459
-0.0114528
-0.0180768
0.00235942
0.00229632
0.00214984
0.00194507
0.00171263
0.00148029
0.00126977
0.00109068
0.000941469
0.000814727
0.000699304
0.000585084
0.000464062
0.000330986
0.000183049
1.84364e-05
-0.000164176
-0.000366652
-0.000591964
-0.000845453
-0.00113621
-0.00147888
-0.00189699
-0.00242823
-0.00313461
-0.00412058
-0.00556935
-0.00781904
-0.0115373
-0.0181617
0.00236037
0.00229494
0.00214424
0.00193402
0.00169521
0.00145588
0.0012381
0.00105197
0.000896324
0.000763725
0.000643055
0.000524233
0.000399206
0.000262605
0.000111565
-5.57657e-05
-0.000240693
-0.000445089
-0.00067194
-0.000926618
-0.00121818
-0.00156128
-0.00197939
-0.00251028
-0.00321605
-0.00420127
-0.00564926
-0.00789816
-0.0116156
-0.0182392
0.00235928
0.00229171
0.00213729
0.00192205
0.00167733
0.00143158
0.00120704
0.00101429
0.000852517
0.000714333
0.000588696
0.000465526
0.000336796
0.000197025
4.32513e-05
-0.00012647
-0.000313429
-0.000519491
-0.000747633
-0.00100324
-0.00129539
-0.00163872
-0.00205672
-0.00258719
-0.00329224
-0.00427653
-0.00572336
-0.00797095
-0.0116871
-0.0183103
0.00235655
0.00228711
0.00212933
0.00190952
0.00165939
0.00140762
0.00117683
0.000977926
0.000810374
0.000666979
0.000536697
0.000409518
0.000277379
0.000134728
-2.15143e-05
-0.000193363
-0.000382106
-0.000589592
-0.000818789
-0.0010751
-0.00136762
-0.001711
-0.00212874
-0.00265863
-0.0033628
-0.00434595
-0.00579145
-0.00803768
-0.0117528
-0.018376
0.00235251
0.00228137
0.00212058
0.00189667
0.00164154
0.00138427
0.00114776
0.000943161
0.000770295
0.000622082
0.000487555
0.000356708
0.000221445
7.61646e-05
-8.23054e-05
-0.000256017
-0.00044629
-0.000654959
-0.000885003
-0.00114183
-0.00143455
-0.00177782
-0.00219514
-0.00272433
-0.00342754
-0.00440951
-0.00585375
-0.00809884
-0.0118132
-0.0184367
0.00234758
0.00227488
0.00211137
0.00188373
0.00162413
0.00136189
0.00112016
0.000910426
0.000732717
0.000580132
0.000441767
0.000307591
0.000169512
2.18569e-05
-0.000138573
-0.000313898
-0.000505458
-0.000715104
-0.000945819
-0.00120301
-0.0014958
-0.00183886
-0.00225571
-0.00278418
-0.00348647
-0.00446736
-0.00591049
-0.00815459
-0.0118684
-0.0184922
0.00234212
0.00226807
0.00210209
0.00187112
0.00160753
0.00134084
0.00109449
0.000880175
0.000698143
0.000541667
0.000399861
0.000262731
0.000122141
-2.76086e-05
-0.000189763
-0.000366476
-0.000559121
-0.00076957
-0.00100081
-0.00125826
-0.00155104
-0.00189388
-0.00231029
-0.00283816
-0.00353969
-0.0045197
-0.00596187
-0.00820505
-0.0119182
-0.0185422
0.00233665
0.00226137
0.00209323
0.00185933
0.0015922
0.00132161
0.0010712
0.000852912
0.000667189
0.000507345
0.000362571
0.000222868
8.00854e-05
-7.15018e-05
-0.00023517
-0.000413088
-0.000606659
-0.000817774
-0.00104944
-0.00130709
-0.00159987
-0.00194251
-0.00235859
-0.00288599
-0.00358698
-0.0045664
-0.00600797
-0.00825054
-0.0119632
-0.0185872
0.00233149
0.00225523
0.00208528
0.00184886
0.00157868
0.00130473
0.00105086
0.000829289
0.000640531
0.00047796
0.000330769
0.000188953
4.43565e-05
-0.000108772
-0.000273708
-0.000452634
-0.000646965
-0.000858617
-0.00109062
-0.00134842
-0.00164118
-0.00198367
-0.00239948
-0.00292656
-0.00362721
-0.00460632
-0.00604769
-0.00829026
-0.0120032
-0.0186279
0.0023273
0.00225002
0.0020785
0.00183997
0.00156726
0.00129059
0.0010341
0.000810099
0.000619163
0.000454639
0.000305698
0.000162335
1.63524e-05
-0.000137962
-0.000303888
-0.000483578
-0.000678467
-0.000890484
-0.00112268
-0.00138053
-0.00167322
-0.00201551
-0.00243107
-0.00295786
-0.00365824
-0.00463717
-0.00607849
-0.00832121
-0.0120345
-0.0186596
0.00232567
0.00224767
0.00207367
0.0018318
0.00155577
0.00127635
0.00101775
0.00079204
0.000599547
0.000433456
0.000282933
0.00013796
-9.58931e-06
-0.000165363
-0.000332575
-0.000513353
-0.000709129
-0.000921844
-0.00115457
-0.00141277
-0.00170563
-0.00204791
-0.00246324
-0.00298961
-0.00368935
-0.00466747
-0.00610792
-0.00835001
-0.0120637
-0.0186921
0.0142614
0.0139623
0.0124737
0.0103035
0.00750967
0.00422137
0.000602698
-0.0029847
-0.00582219
-0.0072652
-0.00733064
-0.00657191
-0.00556296
-0.00463037
-0.00390217
-0.00339729
-0.00308105
-0.00290142
-0.00280961
-0.00276779
-0.00274982
-0.00273929
-0.0027271
-0.00270922
-0.00268487
-0.00265512
-0.00262186
-0.00258709
-0.00255258
-0.00251959
-0.0024889
-0.00246087
-0.00243552
-0.00241274
-0.0023923
-0.00237402
-0.00235771
-0.00234323
-0.0023305
-0.00231942
-0.0023099
-0.00230186
-0.00229517
-0.00228974
-0.00228544
-0.00228218
-0.00227987
-0.00227843
-0.00227781
-0.00227795
-0.00227882
-0.0022804
-0.00228267
-0.00228559
-0.00228914
-0.00229332
-0.00229809
-0.00230344
-0.00230933
-0.00231576
-0.0023227
-0.00233013
-0.00233803
-0.00234639
-0.00235519
-0.00236441
-0.00237404
-0.00238406
-0.00239447
-0.00240525
-0.00241638
-0.00242786
-0.00243968
-0.00245182
-0.00246427
-0.00247703
-0.00249009
-0.00250343
-0.00251705
-0.00253094
-0.0025451
-0.0025595
-0.00257416
-0.00258905
-0.00260418
-0.00261953
-0.0026351
-0.00265088
-0.00266687
-0.00268306
-0.00269944
-0.00271602
-0.00273278
-0.00274973
-0.00276686
-0.00278416
-0.00280164
-0.00281929
-0.0028371
-0.00285508
-0.00287322
-0.00289153
-0.00290999
-0.00292861
-0.00294738
-0.0029663
-0.00298538
-0.00300461
-0.00302398
-0.0030435
-0.00306316
-0.00308295
-0.00310289
-0.00312296
-0.00314317
-0.0031635
-0.00318396
-0.00320455
-0.00322526
-0.0032461
-0.00326706
-0.00328814
-0.00330933
-0.00333064
-0.00335206
-0.00337359
-0.00339523
-0.00341698
-0.00343884
-0.00346079
-0.00348285
-0.00350501
-0.00352727
-0.00354962
-0.00357207
-0.0035946
-0.00361723
-0.00363994
-0.00366273
-0.00368561
-0.00370857
-0.00373161
-0.00375474
-0.00377794
-0.00380123
-0.0038246
-0.00384806
-0.0038716
-0.00389523
-0.00391894
-0.00394275
-0.00396665
-0.00399064
-0.00401472
-0.0040389
-0.00406315
-0.0040875
-0.00411192
-0.00413642
-0.004161
-0.00418565
-0.00421036
-0.00423514
-0.00425999
-0.00428488
-0.00430984
-0.00433485
-0.00435992
-0.00438505
-0.00441024
-0.0044355
-0.00446082
-0.0044862
-0.00451163
-0.00453715
-0.00456273
-0.0045884
-0.00461413
-0.00463994
-0.00466579
-0.00469172
-0.00471771
-0.00474378
-0.00476991
-0.0047961
-0.00482233
-0.00484861