/*--------------------------------*- C++ -*----------------------------------*\
| =========                 |                                                 |
| \\      /  F ield         | OpenFOAM: The Open Source CFD Toolbox           |
|  \\    /   O peration     | Version:  v2006                                 |
|   \\  /    A nd           | Website:  www.openfoam.com                      |
|    \\/     M anipulation  |                                                 |
\*---------------------------------------------------------------------------*/
FoamFile
{
    version     2.0;
    format      ascii;
    class       surfaceScalarField;
    location    "1.4";
    object      phi;
}
// * * * * * * * * * * * * * * * * * * * * * * * * * * * * * * * * * * * * * //

dimensions      [0 3 -1 0 0 0 0];
oriented        oriented;


internalField   nonuniform List<scalar> 
52390
(
1.17003e-06
-3.20964e-07
1.17003e-06
2.82358e-07
1.17315e-06
-2.54188e-07
1.17329e-06
2.16623e-07
1.17679e-06
-2.08692e-07
1.1769e-06
1.65705e-07
1.18025e-06
-1.69246e-07
1.18014e-06
1.31443e-07
1.18337e-06
-1.35064e-07
1.18306e-06
1.00472e-07
1.18612e-06
-1.0914e-07
1.18558e-06
7.40663e-08
1.18843e-06
-8.91326e-08
1.18765e-06
5.46556e-08
1.19033e-06
-7.26755e-08
1.1893e-06
4.1248e-08
1.19188e-06
-5.89401e-08
1.19055e-06
3.12813e-08
1.19311e-06
-4.75584e-08
1.19137e-06
2.32799e-08
1.19398e-06
-3.82533e-08
1.19168e-06
1.67536e-08
1.19441e-06
-3.03893e-08
1.19134e-06
1.16023e-08
1.19426e-06
-2.26713e-08
1.19035e-06
7.41433e-09
1.1929e-06
-1.17792e-08
1.18668e-06
4.32396e-09
1.18221e-06
1.86004e-08
2.36215e-08
1.15373e-06
1.22709e-06
-3.23793e-07
1.22764e-06
2.81806e-07
1.23155e-06
-2.58095e-07
1.23223e-06
2.15939e-07
1.23608e-06
-2.12537e-07
1.23652e-06
1.65266e-07
1.23985e-06
-1.72581e-07
1.24014e-06
1.31153e-07
1.24306e-06
-1.37982e-07
1.24329e-06
1.00241e-07
1.24572e-06
-1.11567e-07
1.24595e-06
7.38346e-08
1.24781e-06
-9.09897e-08
1.24815e-06
5.4319e-08
1.24937e-06
-7.38983e-08
1.24996e-06
4.06586e-08
1.25046e-06
-5.94402e-08
1.25146e-06
3.02825e-08
1.25107e-06
-4.71676e-08
1.25266e-06
2.16874e-08
1.25112e-06
-3.67155e-08
1.25352e-06
1.43556e-08
1.25049e-06
-2.73598e-08
1.2539e-06
8.18651e-09
1.24903e-06
-1.7798e-08
1.25347e-06
2.97349e-09
1.24642e-06
-4.7282e-09
1.24974e-06
1.0053e-09
1.23786e-06
3.0477e-08
3.89159e-08
1.22257e-06
1.28548e-06
-3.26493e-07
1.28904e-06
2.78248e-07
1.29182e-06
-2.60877e-07
1.29501e-06
2.12755e-07
1.29716e-06
-2.14689e-07
1.29997e-06
1.62454e-07
1.30121e-06
-1.7382e-07
1.3039e-06
1.28459e-07
1.30434e-06
-1.38419e-07
1.30705e-06
9.75309e-08
1.30667e-06
-1.11184e-07
1.30949e-06
7.1012e-08
1.30827e-06
-8.9774e-08
1.31133e-06
5.12589e-08
1.30928e-06
-7.18463e-08
1.31269e-06
3.72518e-08
1.30981e-06
-5.65562e-08
1.31358e-06
2.65038e-08
1.30989e-06
-4.34707e-08
1.31397e-06
1.76031e-08
1.30954e-06
-3.22791e-08
1.31373e-06
1.01574e-08
1.30874e-06
-2.23625e-08
1.31266e-06
4.25938e-09
1.30752e-06
-1.26597e-08
1.31036e-06
1.38406e-10
1.30598e-06
-3.49086e-10
1.30357e-06
3.4206e-09
1.30067e-06
3.33689e-08
6.14151e-08
1.27817e-06
1.34585e-06
-3.28242e-07
1.35202e-06
2.72081e-07
1.3532e-06
-2.62061e-07
1.35867e-06
2.07291e-07
1.35886e-06
-2.14882e-07
1.36378e-06
1.57537e-07
1.36289e-06
-1.72937e-07
1.36754e-06
1.23816e-07
1.36576e-06
-1.3664e-07
1.37019e-06
9.3099e-08
1.36765e-06
-1.08646e-07
1.37192e-06
6.67438e-08
1.36879e-06
-8.66463e-08
1.37296e-06
4.70937e-08
1.3694e-06
-6.82856e-08
1.37347e-06
3.31811e-08
1.36961e-06
-5.27034e-08
1.3735e-06
2.2615e-08
1.3695e-06
-3.94667e-08
1.37306e-06
1.40447e-08
1.36905e-06
-2.82705e-08
1.37208e-06
7.13029e-09
1.36824e-06
-1.85228e-08
1.37041e-06
2.08374e-09
1.36713e-06
-9.37736e-09
1.36756e-06
-2.9377e-10
1.3658e-06
1.41796e-09
1.36057e-06
8.64548e-09
1.36007e-06
3.38718e-08
8.46244e-08
1.33686e-06
1.4086e-06
-3.28492e-07
1.41618e-06
2.64506e-07
1.41572e-06
-2.61606e-07
1.42239e-06
2.00623e-07
1.42099e-06
-2.13477e-07
1.42693e-06
1.51597e-07
1.42465e-06
-1.70663e-07
1.43006e-06
1.18407e-07
1.42713e-06
-1.33712e-07
1.43199e-06
8.82453e-08
1.42865e-06
-1.05302e-07
1.43298e-06
6.24077e-08
1.42948e-06
-8.31415e-08
1.43339e-06
4.3185e-08
1.42989e-06
-6.47867e-08
1.43342e-06
2.96452e-08
1.43e-06
-4.9284e-08
1.43315e-06
1.94672e-08
1.42984e-06
-3.61556e-08
1.43255e-06
1.13334e-08
1.42936e-06
-2.50776e-08
1.43154e-06
4.95131e-09
1.42852e-06
-1.55096e-08
1.42991e-06
7.02284e-10
1.42739e-06
-6.85931e-09
1.42713e-06
-4.17502e-11
1.42554e-06
3.01383e-09
1.42109e-06
1.3091e-08
1.41819e-06
3.67772e-08
1.1057e-07
1.39224e-06
1.47433e-06
-3.27143e-07
1.48199e-06
2.56841e-07
1.48024e-06
-2.59851e-07
1.48691e-06
1.93953e-07
1.48456e-06
-2.11125e-07
1.49042e-06
1.45733e-07
1.48759e-06
-1.67838e-07
1.4928e-06
1.13206e-07
1.48964e-06
-1.30561e-07
1.49413e-06
8.37634e-08
1.49084e-06
-1.0202e-07
1.4947e-06
5.8554e-08
1.49148e-06
-7.99267e-08
1.49488e-06
3.97862e-08
1.49181e-06
-6.17142e-08
1.49488e-06
2.65738e-08
1.49192e-06
-4.63193e-08
1.49469e-06
1.66911e-08
1.49178e-06
-3.32462e-08
1.49423e-06
8.88668e-09
1.49135e-06
-2.2198e-08
1.49335e-06
2.95381e-09
1.49056e-06
-1.27243e-08
1.49184e-06
-5.71495e-10
1.48928e-06
-4.30174e-09
1.48947e-06
-2.32726e-10
1.4865e-06
5.97738e-09
1.48428e-06
1.53114e-08
1.48316e-06
3.78998e-08
6.42002e-08
1.52953e-06
1.54352e-06
-3.24447e-07
1.55042e-06
2.4994e-07
1.5478e-06
-2.5723e-07
1.55375e-06
1.88008e-07
1.55095e-06
-2.08325e-07
1.55619e-06
1.40492e-07
1.55325e-06
-1.64902e-07
1.5579e-06
1.08552e-07
1.55485e-06
-1.27505e-07
1.55886e-06
7.97498e-08
1.55578e-06
-9.89329e-08
1.55927e-06
5.50595e-08
1.55627e-06
-7.69252e-08
1.55944e-06
3.66131e-08
1.55654e-06
-5.88179e-08
1.55952e-06
2.35983e-08
1.55667e-06
-4.34699e-08
1.55944e-06
1.3918e-08
1.5566e-06
-3.04035e-08
1.55908e-06
6.41098e-09
1.55626e-06
-1.93808e-08
1.55824e-06
9.76514e-10
1.55558e-06
-1.00628e-08
1.55667e-06
-1.66798e-09
1.55451e-06
-2.14006e-09
1.55379e-06
4.842e-10
1.55259e-06
7.18039e-09
1.54766e-06
2.0242e-08
1.54337e-06
4.21896e-08
9.51295e-08
1.51244e-06
1.61645e-06
-3.20773e-07
1.62239e-06
2.44006e-07
1.61919e-06
-2.54034e-07
1.6243e-06
1.82897e-07
1.62124e-06
-2.05257e-07
1.62587e-06
1.35861e-07
1.62284e-06
-1.61875e-07
1.62708e-06
1.04316e-07
1.62401e-06
-1.24438e-07
1.62778e-06
7.59755e-08
1.62469e-06
-9.58349e-08
1.62809e-06
5.16504e-08
1.62504e-06
-7.3874e-08
1.62824e-06
3.34118e-08
1.62526e-06
-5.58346e-08
1.62833e-06
2.05314e-08
1.62538e-06
-4.0526e-08
1.62825e-06
1.10488e-08
1.62535e-06
-2.75021e-08
1.62787e-06
3.89788e-09
1.62508e-06
-1.65976e-08
1.62697e-06
-9.09839e-10
1.62446e-06
-7.55799e-09
1.62529e-06
-2.48944e-09
1.62346e-06
-3.14883e-10
1.62207e-06
1.86992e-09
1.62159e-06
7.66672e-09
1.61645e-06
2.53847e-08
1.61165e-06
4.69811e-08
1.31734e-07
1.57505e-06
1.69321e-06
-3.16413e-07
1.69845e-06
2.38768e-07
1.69478e-06
-2.50363e-07
1.69934e-06
1.78333e-07
1.69597e-06
-2.0188e-07
1.70028e-06
1.3155e-07
1.69701e-06
-1.58602e-07
1.70109e-06
1.0023e-07
1.69781e-06
-1.21155e-07
1.70158e-06
7.22011e-08
1.69827e-06
-9.25189e-08
1.70178e-06
4.81419e-08
1.6985e-06
-7.05933e-08
1.70184e-06
3.00709e-08
1.69863e-06
-5.26314e-08
1.70183e-06
1.73349e-08
1.69872e-06
-3.74111e-08
1.70166e-06
8.10513e-09
1.69867e-06
-2.45173e-08
1.70117e-06
1.40353e-09
1.69841e-06
-1.38343e-08
1.70019e-06
-2.69374e-09
1.69771e-06
-5.07615e-09
1.69868e-06
-3.45896e-09
1.69581e-06
2.55278e-09
1.69652e-06
1.16168e-09
1.6913e-06
1.28856e-08
1.69577e-06
2.09112e-08
1.69681e-06
4.594e-08
8.23085e-08
1.74624e-06
1.77384e-06
-3.11532e-07
1.77881e-06
2.33797e-07
1.77465e-06
-2.46202e-07
1.77905e-06
1.73938e-07
1.77526e-06
-1.98097e-07
1.77957e-06
1.27246e-07
1.77591e-06
-1.54943e-07
1.78008e-06
9.60613e-08
1.77643e-06
-1.17514e-07
1.78037e-06
6.82653e-08
1.77672e-06
-8.88719e-08
1.78043e-06
4.4438e-08
1.77684e-06
-6.70078e-08
1.78036e-06
2.6555e-08
1.7769e-06
-4.91736e-08
1.78021e-06
1.40273e-08
1.77693e-06
-3.41324e-08
1.77988e-06
5.15434e-09
1.77687e-06
-2.15103e-08
1.77922e-06
-9.41708e-10
1.77661e-06
-1.12259e-08
1.77808e-06
-4.16606e-09
1.77589e-06
-2.88823e-09
1.7764e-06
-3.96794e-09
1.77379e-06
5.16309e-09
1.77434e-06
6.1609e-10
1.7682e-06
1.90266e-08
1.77457e-06
1.45356e-08
1.77619e-06
4.43231e-08
2.65442e-08
1.83195e-06
1.85841e-06
-3.06193e-07
1.8635e-06
2.28711e-07
1.85879e-06
-2.41497e-07
1.86333e-06
1.69404e-07
1.85906e-06
-1.93829e-07
1.86359e-06
1.22717e-07
1.85946e-06
-1.50819e-07
1.86387e-06
9.16495e-08
1.85981e-06
-1.13449e-07
1.86401e-06
6.40665e-08
1.85999e-06
-8.48525e-08
1.86394e-06
4.04871e-08
1.86004e-06
-6.31071e-08
1.86374e-06
2.2858e-08
1.86005e-06
-4.54845e-08
1.86343e-06
1.06459e-08
1.86004e-06
-3.07482e-08
1.86292e-06
2.2746e-09
1.85999e-06
-1.85718e-08
1.86207e-06
-3.02872e-09
1.85974e-06
-8.89106e-09
1.86074e-06
-5.17217e-09
1.85906e-06
-1.20262e-09
1.85868e-06
-3.59023e-09
1.85747e-06
6.37162e-09
1.85535e-06
2.7329e-09
1.85365e-06
2.0735e-08
1.84861e-06
1.95768e-08
1.83881e-06
5.41196e-08
6.24458e-08
1.80291e-06
1.94706e-06
-3.00415e-07
1.95253e-06
2.23246e-07
1.94722e-06
-2.36195e-07
1.9521e-06
1.64529e-07
1.94729e-06
-1.89021e-07
1.9522e-06
1.17809e-07
1.94757e-06
-1.46192e-07
1.95234e-06
8.68862e-08
1.94782e-06
-1.08934e-07
1.95235e-06
5.95394e-08
1.94795e-06
-8.04542e-08
1.95217e-06
3.62628e-08
1.94798e-06
-5.89135e-08
1.95185e-06
1.8992e-08
1.94798e-06
-4.16209e-08
1.95139e-06
7.24344e-09
1.94799e-06
-2.73519e-08
1.9507e-06
-4.39785e-10
1.94795e-06
-1.58226e-08
1.94968e-06
-4.74991e-09
1.94772e-06
-6.9391e-09
1.94818e-06
-5.62466e-09
1.94706e-06
-8.46257e-11
1.94587e-06
-2.40597e-09
1.9455e-06
6.74435e-09
1.94187e-06
6.35904e-09
1.94282e-06
1.97853e-08
1.93165e-06
3.07562e-08
1.92701e-06
5.87501e-08
9.36933e-08
1.89577e-06
2.03997e-06
-2.94195e-07
2.04598e-06
2.17233e-07
2.04003e-06
-2.30243e-07
2.04537e-06
1.59184e-07
2.03998e-06
-1.8363e-07
2.04537e-06
1.12421e-07
2.04022e-06
-1.41041e-07
2.0454e-06
8.17014e-08
2.04043e-06
-1.03961e-07
2.04532e-06
5.46497e-08
2.04056e-06
-7.56919e-08
2.04505e-06
3.1767e-08
2.04062e-06
-5.44745e-08
2.04461e-06
1.49982e-08
2.04066e-06
-3.76697e-08
2.044e-06
3.90341e-09
2.04072e-06
-2.40733e-08
2.04314e-06
-2.86244e-09
2.04073e-06
-1.34134e-08
2.04197e-06
-5.98605e-09
2.04051e-06
-5.48115e-09
2.04036e-06
-5.47364e-09
2.0397e-06
5.72822e-10
2.03819e-06
-8.9464e-10
2.03744e-06
7.49954e-09
2.03426e-06
9.54032e-09
2.03315e-06
2.08891e-08
2.02609e-06
3.7816e-08
2.01459e-06
7.02542e-08
1.26956e-07
1.98132e-06
2.13733e-06
-2.87524e-07
2.144e-06
2.1056e-07
2.13735e-06
-2.23589e-07
2.14325e-06
1.53287e-07
2.13724e-06
-1.77619e-07
2.14317e-06
1.06491e-07
2.13748e-06
-1.35352e-07
2.14312e-06
7.60548e-08
2.1377e-06
-9.85353e-08
2.14296e-06
4.93911e-08
2.13786e-06
-7.05963e-08
2.1426e-06
2.70299e-08
2.13798e-06
-4.9856e-08
2.14203e-06
1.09435e-08
2.1381e-06
-3.37345e-08
2.14128e-06
7.25225e-10
2.13824e-06
-2.10339e-08
2.14027e-06
-4.89542e-09
2.1383e-06
-1.14459e-08
2.139e-06
-6.68455e-09
2.13802e-06
-4.49655e-09
2.13754e-06
-4.9929e-09
2.13666e-06
1.45286e-09
2.13583e-06
-7.02957e-11
2.13361e-06
9.72551e-09
2.13174e-06
1.14058e-08
2.1261e-06
2.65251e-08
2.13207e-06
3.18508e-08
2.15571e-06
4.6617e-08
5.20639e-08
2.2306e-06
2.23935e-06
-2.80388e-07
2.24677e-06
2.03144e-07
2.23936e-06
-2.16183e-07
2.24587e-06
1.46776e-07
2.23921e-06
-1.70952e-07
2.24572e-06
9.99765e-08
2.23949e-06
-1.29118e-07
2.24561e-06
6.99314e-08
2.23975e-06
-9.2677e-08
2.24535e-06
4.37871e-08
2.23998e-06
-6.52217e-08
2.24489e-06
2.21176e-08
2.24019e-06
-4.51556e-08
2.2442e-06
6.93913e-09
2.24042e-06
-2.99618e-08
2.24328e-06
-2.13434e-09
2.24066e-06
-1.84145e-08
2.24214e-06
-6.37379e-09
2.24078e-06
-1.00887e-08
2.24079e-06
-6.6906e-09
2.24048e-06
-4.18091e-09
2.23917e-06
-3.6884e-09
2.23929e-06
1.33413e-09
2.23696e-06
2.25451e-09
2.23636e-06
1.03341e-08
2.23294e-06
1.48228e-08
2.23053e-06
2.89317e-08
2.22349e-06
3.88978e-08
2.20744e-06
6.26575e-08
8.29199e-08
2.17659e-06
2.34626e-06
-2.72768e-07
2.35448e-06
1.94923e-07
2.34627e-06
-2.07975e-07
2.35344e-06
1.39608e-07
2.34608e-06
-1.63599e-07
2.35321e-06
9.28552e-08
2.34643e-06
-1.2234e-07
2.35302e-06
6.33374e-08
2.34677e-06
-8.64203e-08
2.35267e-06
3.78845e-08
2.34709e-06
-5.96413e-08
2.35208e-06
1.71214e-08
2.34742e-06
-4.04908e-08
2.35124e-06
3.11764e-09
2.34779e-06
-2.65078e-08
2.35017e-06
-4.51702e-09
2.34813e-06
-1.63749e-08
2.34893e-06
-7.17537e-09
2.34827e-06
-9.42648e-09
2.34755e-06
-5.97087e-09
2.34792e-06
-4.5537e-09
2.34565e-06
-1.421e-09
2.34707e-06
-7.73681e-11
2.34283e-06
6.49226e-09
2.34454e-06
8.61873e-09
2.33865e-06
2.07172e-08
2.33953e-06
2.80496e-08
2.32471e-06
5.37215e-08
2.31516e-06
7.22013e-08
1.07166e-07
2.29092e-06
2.45828e-06
-2.64652e-07
2.46735e-06
1.85854e-07
2.4583e-06
-1.98929e-07
2.46615e-06
1.31759e-07
2.4581e-06
-1.55549e-07
2.46583e-06
8.51303e-08
2.45853e-06
-1.15044e-07
2.46556e-06
5.63106e-08
2.45897e-06
-7.98295e-08
2.46508e-06
3.17672e-08
2.4594e-06
-5.39635e-08
2.46436e-06
1.21668e-08
2.45987e-06
-3.60001e-08
2.46337e-06
-3.84706e-10
2.46036e-06
-2.34955e-08
2.46218e-06
-6.34214e-09
2.46075e-06
-1.49405e-08
2.46096e-06
-7.38308e-09
2.46073e-06
-9.20096e-09
2.45979e-06
-5.03047e-09
2.45997e-06
-4.7363e-09
2.45848e-06
6.87449e-11
2.45824e-06
1.61694e-10
2.45609e-06
8.64542e-09
2.45462e-06
1.00857e-08
2.45146e-06
2.38775e-08
2.44892e-06
3.05904e-08
2.44078e-06
6.1861e-08
2.42261e-06
9.03768e-08
1.41366e-07
2.38841e-06
2.57568e-06
-2.56033e-07
2.58562e-06
1.75911e-07
2.57571e-06
-1.89024e-07
2.58425e-06
1.23223e-07
2.57551e-06
-1.46809e-07
2.58381e-06
7.68277e-08
2.57604e-06
-1.07276e-07
2.58344e-06
4.89166e-08
2.57661e-06
-7.29978e-08
2.58282e-06
2.55513e-08
2.57719e-06
-4.83267e-08
2.58195e-06
7.40534e-09
2.57778e-06
-3.18378e-08
2.58083e-06
-3.42546e-09
2.57837e-06
-2.10384e-08
2.57958e-06
-7.5587e-09
2.57873e-06
-1.40808e-08
2.57848e-06
-7.13519e-09
2.57844e-06
-9.16467e-09
2.57768e-06
-4.26492e-09
2.57699e-06
-4.04639e-09
2.5772e-06
-1.47334e-10
2.57429e-06
3.07194e-09
2.5754e-06
7.54151e-09
2.56995e-06
1.55277e-08
2.56921e-06
2.46195e-08
2.56133e-06
3.84758e-08
2.57833e-06
4.48565e-08
2.61412e-06
5.45871e-08
5.45233e-08
2.70096e-06
2.6987e-06
-2.46908e-07
2.70954e-06
1.65073e-07
2.69877e-06
-1.78253e-07
2.70798e-06
1.14009e-07
2.69858e-06
-1.37404e-07
2.70741e-06
6.79967e-08
2.69924e-06
-9.91102e-08
2.70691e-06
4.1254e-08
2.69997e-06
-6.60563e-08
2.70612e-06
1.93974e-08
2.70071e-06
-4.29162e-08
2.70508e-06
3.03917e-09
2.70146e-06
-2.82233e-08
2.70382e-06
-5.78556e-09
2.70211e-06
-1.93238e-08
2.70257e-06
-8.02676e-09
2.70241e-06
-1.39205e-08
2.7015e-06
-6.22282e-09
2.70207e-06
-9.73551e-09
2.70053e-06
-2.72318e-09
2.70105e-06
-4.56408e-09
2.6992e-06
1.70232e-09
2.69893e-06
3.34332e-09
2.69665e-06
9.82125e-09
2.69475e-06
1.74285e-08
2.69184e-06
2.7526e-08
2.68833e-06
4.1987e-08
2.67927e-06
5.39198e-08
2.65811e-06
7.57421e-08
8.93666e-08
2.62327e-06
2.82763e-06
-2.37271e-07
2.83937e-06
1.5333e-07
2.82774e-06
-1.66615e-07
2.83761e-06
1.04135e-07
2.82757e-06
-1.27368e-07
2.83688e-06
5.86955e-08
2.82839e-06
-9.06266e-08
2.83622e-06
3.34228e-08
2.8293e-06
-5.91288e-08
2.83526e-06
1.34306e-08
2.83017e-06
-3.78206e-08
2.83409e-06
-8.83333e-10
2.83105e-06
-2.51814e-08
2.83274e-06
-7.47885e-09
2.83171e-06
-1.82945e-08
2.83154e-06
-7.85652e-09
2.8319e-06
-1.4281e-08
2.83054e-06
-4.85643e-09
2.8316e-06
-1.07994e-08
2.82916e-06
-2.86871e-10
2.8311e-06
-6.50296e-09
2.82678e-06
6.02335e-09
2.83003e-06
9.86864e-11
2.82352e-06
1.6328e-08
2.82708e-06
1.38661e-08
2.8194e-06
3.52117e-08
2.82048e-06
4.09035e-08
2.79988e-06
7.45178e-08
2.79045e-06
8.51764e-08
1.14126e-07
2.76569e-06
2.96276e-06
-2.27132e-07
2.97538e-06
1.40705e-07
2.96292e-06
-1.5415e-07
2.97339e-06
9.36654e-08
2.9628e-06
-1.16782e-07
2.97245e-06
4.90422e-08
2.9638e-06
-8.1971e-08
2.97162e-06
2.56062e-08
2.96493e-06
-5.2442e-08
2.97041e-06
7.94627e-09
2.96608e-06
-3.3489e-08
2.96898e-06
-3.78473e-09
2.96705e-06
-2.3247e-08
2.96771e-06
-8.14267e-09
2.96753e-06
-1.8108e-08
2.96679e-06
-7.12128e-09
2.96735e-06
-1.4844e-08
2.96614e-06
-3.64535e-09
2.96675e-06
-1.14055e-08
2.96518e-06
1.28005e-09
2.96539e-06
-6.71207e-09
2.96351e-06
7.90454e-09
2.96333e-06
2.79761e-10
2.96013e-06
1.95234e-08
2.95849e-06
1.55047e-08
2.95596e-06
3.77426e-08
2.95325e-06
4.36186e-08
2.94224e-06
8.55309e-08
2.91676e-06
1.10652e-07
1.52046e-07
2.87884e-06
3.10439e-06
-2.16515e-07
3.11786e-06
1.27234e-07
3.10463e-06
-1.40923e-07
3.11562e-06
8.26798e-08
3.10458e-06
-1.0574e-07
3.11446e-06
3.91569e-08
3.10576e-06
-7.32732e-08
3.11344e-06
1.79339e-08
3.10709e-06
-4.60984e-08
3.1121e-06
2.9438e-09
3.10827e-06
-2.96626e-08
3.11075e-06
-6.26683e-09
3.10902e-06
-2.15175e-08
3.10991e-06
-9.02665e-09
3.10881e-06
-1.70102e-08
3.10982e-06
-8.1361e-09
3.10763e-06
-1.26528e-08
3.11022e-06
-6.2381e-09
3.10558e-06
-6.75663e-09
3.11071e-06
-3.85062e-09
3.10275e-06
1.24329e-09
3.11048e-06
1.75547e-10
3.09988e-06
1.0879e-08
3.10791e-06
1.14928e-08
3.09565e-06
2.77676e-08
3.09908e-06
3.43158e-08
3.08851e-06
5.4185e-08
3.12135e-06
5.2692e-08
3.16744e-06
6.45587e-08
5.99228e-08
3.25956e-06
3.25285e-06
-2.05455e-07
3.2671e-06
1.1298e-07
3.25322e-06
-1.27041e-07
3.2646e-06
7.13001e-08
3.25325e-06
-9.43849e-08
3.26318e-06
2.92196e-08
3.25465e-06
-6.47395e-08
3.26193e-06
1.06485e-08
3.25624e-06
-4.04043e-08
3.26034e-06
-1.15424e-09
3.25764e-06
-2.69605e-08
3.25886e-06
-7.48812e-09
3.25849e-06
-2.11502e-08
3.25787e-06
-8.40162e-09
3.25857e-06
-1.77172e-08
3.25719e-06
-6.7488e-09
3.25839e-06
-1.38572e-08
3.25614e-06
-3.9869e-09
3.25823e-06
-8.84601e-09
3.25436e-06
1.83714e-11
3.25771e-06
-2.1053e-09
3.25166e-06
6.228e-09
3.25541e-06
7.12104e-09
3.24826e-06
1.86473e-08
3.25218e-06
2.385e-08
3.24597e-06
4.05258e-08
3.24745e-06
5.27019e-08
3.22673e-06
7.34108e-08
3.20317e-06
8.81153e-08
1.01757e-07
3.16134e-06
3.40846e-06
-1.93983e-07
3.42342e-06
9.8021e-08
3.40901e-06
-1.12635e-07
3.42064e-06
5.96733e-08
3.40913e-06
-8.2877e-08
3.41891e-06
1.94391e-08
3.41077e-06
-5.66019e-08
3.4174e-06
4.01863e-09
3.4127e-06
-3.57015e-08
3.4155e-06
-3.94805e-09
3.41432e-06
-2.57815e-08
3.41394e-06
-7.10672e-09
3.41511e-06
-2.23258e-08
3.41298e-06
-6.26915e-09
3.41521e-06
-1.99527e-08
3.41214e-06
-3.67759e-09
3.41527e-06
-1.69865e-08
3.4109e-06
3.8909e-10
3.41489e-06
-1.28419e-08
3.40926e-06
5.65088e-09
3.41429e-06
-7.13704e-09
3.40627e-06
1.42441e-08
3.4123e-06
1.09093e-09
3.40306e-06
2.7891e-08
3.4081e-06
1.88096e-08
3.40184e-06
4.67873e-08
3.40663e-06
4.79072e-08
3.38225e-06
9.77963e-08
3.35523e-06
1.15131e-07
1.46239e-07
3.31075e-06
3.57159e-06
-1.82165e-07
3.58713e-06
8.24873e-08
3.57238e-06
-9.78932e-08
3.58408e-06
4.79792e-08
3.57257e-06
-7.13699e-08
3.58206e-06
9.95089e-09
3.57431e-06
-4.88555e-08
3.58056e-06
-2.22564e-09
3.57608e-06
-3.12199e-08
3.57909e-06
-6.96603e-09
3.57695e-06
-2.36389e-08
3.57857e-06
-8.72384e-09
3.57653e-06
-2.0291e-08
3.57895e-06
-8.68889e-09
3.57506e-06
-1.60572e-08
3.57986e-06
-8.4826e-09
3.57274e-06
-9.86537e-09
3.58136e-06
-8.22526e-09
3.56976e-06
-1.24355e-09
3.58198e-06
-6.56963e-09
3.56662e-06
8.21964e-09
3.58219e-06
-1.32392e-09
3.56355e-06
1.97337e-08
3.57992e-06
1.15165e-08
3.55963e-06
3.9103e-08
3.56986e-06
3.65538e-08
3.55573e-06
6.20423e-08
3.60421e-06
4.93161e-08
3.65629e-06
6.30447e-08
5.83496e-08
3.74418e-06
3.74262e-06
-1.70084e-07
3.75857e-06
6.65435e-08
3.74375e-06
-8.30795e-08
3.75526e-06
3.64721e-08
3.744e-06
-6.01132e-08
3.75286e-06
1.09412e-09
3.74592e-06
-4.19161e-08
3.75119e-06
-7.49403e-09
3.74786e-06
-2.78909e-08
3.74955e-06
-8.658e-09
3.74914e-06
-2.32244e-08
3.74832e-06
-7.90978e-09
3.74993e-06
-2.18944e-08
3.74685e-06
-5.60734e-09
3.75077e-06
-1.99754e-08
3.74512e-06
-2.84221e-09
3.75131e-06
-1.6047e-08
3.74332e-06
-2.41931e-10
3.75155e-06
-9.47464e-09
3.74174e-06
3.2396e-09
3.74985e-06
1.10973e-10
3.73921e-06
9.31559e-09
3.74674e-06
1.22066e-08
3.73712e-06
2.11384e-08
3.74494e-06
3.12814e-08
3.7381e-06
4.33899e-08
3.73783e-06
6.23183e-08
3.71454e-06
7.26081e-08
3.68411e-06
9.3469e-08
1.07565e-07
3.6349e-06
3.92191e-06
-1.5781e-07
3.93807e-06
5.03887e-08
3.92353e-06
-6.85389e-08
3.93452e-06
2.54814e-08
3.92385e-06
-4.94462e-08
3.93164e-06
-6.69525e-09
3.9258e-06
-3.6074e-08
3.93003e-06
-1.17225e-08
3.92759e-06
-2.54557e-08
3.92863e-06
-9.69487e-09
3.92876e-06
-2.33523e-08
3.92731e-06
-6.46082e-09
3.93008e-06
-2.46635e-08
3.92514e-06
-6.69656e-10
3.93142e-06
-2.6253e-08
3.92272e-06
5.85368e-09
3.93299e-06
-2.63118e-08
3.91974e-06
1.30009e-08
3.93433e-06
-2.40609e-08
3.91632e-06
2.12473e-08
3.93488e-06
-1.84474e-08
3.91309e-06
3.11057e-08
3.93366e-06
-8.36651e-09
3.91145e-06
4.33561e-08
3.93388e-06
8.84502e-09
3.91552e-06
6.17566e-08
3.93639e-06
4.14387e-08
3.89064e-06
1.18365e-07
3.85807e-06
1.26037e-07
1.55341e-07
3.81029e-06
4.10988e-06
-1.45445e-07
4.12603e-06
3.42443e-08
4.11208e-06
-5.45917e-08
4.12238e-06
1.51823e-08
4.11215e-06
-3.92201e-08
4.11944e-06
-1.39844e-08
4.11351e-06
-3.01427e-08
4.11886e-06
-1.70711e-08
4.11373e-06
-2.03233e-08
4.11955e-06
-1.55188e-08
4.11251e-06
-1.63085e-08
4.12086e-06
-1.48092e-08
4.11041e-06
-1.42149e-08
4.12246e-06
-1.27166e-08
4.10817e-06
-1.19657e-08
4.12351e-06
-9.49144e-09
4.10615e-06
-8.94508e-09
4.124e-06
-4.85555e-09
4.1044e-06
-4.45611e-09
4.12351e-06
2.13879e-09
4.10291e-06
2.15056e-09
4.12109e-06
1.29222e-08
4.1008e-06
1.19241e-08
4.11678e-06
2.73758e-08
4.09811e-06
2.75184e-08
4.11624e-06
4.36279e-08
4.10769e-06
4.99813e-08
4.1584e-06
6.76576e-08
4.21048e-06
7.39614e-08
8.52501e-08
4.28057e-06
4.30701e-06
-1.33149e-07
4.32277e-06
1.84842e-08
4.31031e-06
-4.21348e-08
4.31898e-06
6.50878e-09
4.31014e-06
-3.03768e-08
4.31546e-06
-1.92999e-08
4.31125e-06
-2.59403e-08
4.31498e-06
-2.07944e-08
4.31133e-06
-1.66763e-08
4.31588e-06
-2.00731e-08
4.31019e-06
-1.06134e-08
4.31712e-06
-2.17361e-08
4.30827e-06
-5.37126e-09
4.31873e-06
-2.31762e-08
4.30572e-06
1.04901e-09
4.32004e-06
-2.38123e-08
4.30346e-06
7.62857e-09
4.32083e-06
-2.2225e-08
4.30134e-06
1.50411e-08
4.32058e-06
-1.71086e-08
4.29924e-06
2.34971e-08
4.31938e-06
-7.22103e-09
4.29684e-06
3.44683e-08
4.31507e-06
9.14348e-09
4.29312e-06
4.94626e-08
4.31231e-06
2.44403e-08
4.31059e-06
5.17021e-08
4.36152e-06
1.67331e-08
4.40983e-06
2.56496e-08
4.29702e-09
4.49078e-06
4.51375e-06
-1.21122e-07
4.5286e-06
3.63504e-09
4.51944e-06
-3.29786e-08
4.52496e-06
9.92304e-10
4.51788e-06
-2.32972e-08
4.52073e-06
-2.21531e-08
4.51867e-06
-2.38851e-08
4.51945e-06
-2.15721e-08
4.5197e-06
-1.69285e-08
4.51915e-06
-1.95155e-08
4.521e-06
-1.24717e-08
4.51803e-06
-1.87606e-08
4.52189e-06
-9.22953e-09
4.51645e-06
-1.77349e-08
4.52252e-06
-5.02128e-09
4.51504e-06
-1.63399e-08
4.52259e-06
8.75448e-11
4.51379e-06
-1.34304e-08
4.52181e-06
7.02127e-09
4.51195e-06
-7.24475e-09
4.51913e-06
1.63114e-08
4.50829e-06
3.61807e-09
4.51308e-06
2.96862e-08
4.50446e-06
1.77635e-08
4.51218e-06
4.17343e-08
4.50499e-06
3.16336e-08
4.50865e-06
4.80471e-08
4.48012e-06
4.52571e-08
4.44248e-06
6.32927e-08
6.19523e-08
4.38482e-06
4.73033e-06
-1.09337e-07
4.74457e-06
-1.06074e-08
4.73642e-06
-2.48252e-08
4.74161e-06
-4.19565e-09
4.73493e-06
-1.66184e-08
4.73656e-06
-2.37868e-08
4.73538e-06
-2.27058e-08
4.73474e-06
-2.09289e-08
4.73752e-06
-1.97055e-08
4.73368e-06
-1.56796e-08
4.73952e-06
-1.83133e-08
4.73177e-06
-1.1011e-08
4.74104e-06
-1.85003e-08
4.72938e-06
-6.07244e-09
4.74249e-06
-1.8126e-08
4.72726e-06
-1.11079e-09
4.74309e-06
-1.57501e-08
4.72559e-06
4.07767e-09
4.74279e-06
-1.01792e-08
4.72422e-06
1.13226e-08
4.74133e-06
-8.01933e-10
4.72287e-06
2.2078e-08
4.74002e-06
1.25363e-08
4.72294e-06
3.48446e-08
4.73678e-06
2.78929e-08
4.71454e-06
5.38783e-08
4.71165e-06
5.09394e-08
4.68683e-06
7.0075e-08
4.68037e-06
6.97552e-08
9.43822e-08
4.64794e-06
4.95769e-06
-9.82287e-08
4.96942e-06
-2.23421e-08
4.96705e-06
-2.2452e-08
4.96597e-06
-3.11507e-09
4.96597e-06
-1.66184e-08
4.96108e-06
-1.88956e-08
4.96388e-06
-2.55099e-08
4.96035e-06
-1.73945e-08
4.96473e-06
-2.40861e-08
4.9605e-06
-1.14482e-08
4.96547e-06
-2.32877e-08
4.96011e-06
-5.65219e-09
4.96562e-06
-2.40053e-08
4.95932e-06
2.29634e-10
4.96496e-06
-2.37662e-08
4.95908e-06
4.76845e-09
4.96416e-06
-2.08319e-08
4.9579e-06
1.0342e-08
4.96163e-06
-1.39119e-08
4.95424e-06
1.87069e-08
4.95621e-06
-2.76606e-09
4.94955e-06
2.87353e-08
4.95093e-06
1.11568e-08
4.94723e-06
3.85442e-08
4.94763e-06
2.74909e-08
4.94943e-06
5.20758e-08
4.9473e-06
5.30732e-08
4.9188e-06
9.85711e-08
4.87532e-06
1.13242e-07
1.30926e-07
4.83877e-06
5.19561e-06
-8.75236e-08
5.20694e-06
-3.36726e-08
5.2026e-06
-1.81139e-08
5.20673e-06
-7.2444e-09
5.19805e-06
-7.93059e-09
5.20474e-06
-2.5586e-08
5.19529e-06
-1.6063e-08
5.20616e-06
-2.82695e-08
5.19359e-06
-1.15124e-08
5.20836e-06
-2.62168e-08
5.19164e-06
-6.56987e-09
5.21004e-06
-2.40539e-08
5.18937e-06
-3.3288e-09
5.21144e-06
-2.18427e-08
5.18757e-06
9.98176e-11
5.21148e-06
-1.9139e-08
5.18693e-06
3.72049e-09
5.21068e-06
-1.34124e-08
5.18672e-06
1.00524e-08
5.20945e-06
-4.02561e-09
5.1869e-06
1.97838e-08
5.20588e-06
9.75835e-09
5.1825e-06
3.45321e-08
5.1931e-06
2.7949e-08
5.1729e-06
4.76853e-08
5.18457e-06
4.04068e-08
5.19043e-06
4.7215e-08
5.26262e-06
2.6385e-08
5.34959e-06
2.62679e-08
2.69989e-08
5.45352e-06
5.4455e-06
-7.78341e-08
5.45209e-06
-4.0266e-08
5.45593e-06
-2.19525e-08
5.45001e-06
-1.32446e-09
5.45547e-06
-1.33865e-08
5.44598e-06
-1.60938e-08
5.45237e-06
-2.24555e-08
5.44562e-06
-2.15189e-08
5.45184e-06
-1.77398e-08
5.44685e-06
-2.1221e-08
5.4517e-06
-1.14215e-08
5.44765e-06
-2.00072e-08
5.45077e-06
-6.44592e-09
5.44672e-06
-1.77921e-08
5.44876e-06
-1.937e-09
5.4444e-06
-1.47777e-08
5.44497e-06
3.14836e-09
5.44183e-06
-1.02717e-08
5.44256e-06
9.31945e-09
5.43884e-06
-3.02434e-10
5.4396e-06
1.90159e-08
5.43544e-06
1.39239e-08
5.43576e-06
3.4207e-08
5.43373e-06
2.99839e-08
5.43495e-06
4.64608e-08
5.43423e-06
4.11319e-08
5.4236e-06
5.78395e-08
5.39733e-06
5.26577e-08
5.35882e-06
6.47792e-08
6.4901e-08
5.32092e-06
5.70685e-06
-6.87301e-08
5.71272e-06
-4.61281e-08
5.71492e-06
-2.41555e-08
5.71519e-06
-1.59168e-09
5.71487e-06
-1.30746e-08
5.71034e-06
-1.15619e-08
5.71072e-06
-2.28299e-08
5.70697e-06
-1.77677e-08
5.71142e-06
-2.21936e-08
5.70759e-06
-1.73935e-08
5.71328e-06
-1.71065e-08
5.70714e-06
-1.38721e-08
5.71348e-06
-1.27789e-08
5.70586e-06
-1.01784e-08
5.71324e-06
-9.31656e-09
5.70475e-06
-6.28947e-09
5.71259e-06
-4.68923e-09
5.70248e-06
-1.58602e-10
5.7083e-06
3.49892e-09
5.69867e-06
9.32711e-09
5.70284e-06
1.48396e-08
5.69575e-06
2.10196e-08
5.70077e-06
2.91868e-08
5.69372e-06
3.70329e-08
5.694e-06
4.61832e-08
5.68153e-06
5.36012e-08
5.67664e-06
6.27288e-08
5.65949e-06
6.98087e-08
5.64455e-06
7.97171e-08
8.78008e-08
5.62165e-06
5.98099e-06
-6.05228e-08
5.9814e-06
-4.65456e-08
5.98885e-06
-3.16005e-08
5.98754e-06
-2.82829e-10
5.99007e-06
-1.56053e-08
5.98147e-06
-2.96578e-09
5.98736e-06
-2.87183e-08
5.97868e-06
-9.08664e-09
5.98801e-06
-3.15261e-08
5.97905e-06
-8.43222e-09
5.98845e-06
-2.65042e-08
5.97935e-06
-4.76736e-09
5.98743e-06
-2.0867e-08
5.97898e-06
-1.72875e-09
5.98408e-06
-1.44177e-08
5.97642e-06
1.37284e-09
5.97892e-06
-7.18603e-09
5.97309e-06
5.67396e-09
5.97574e-06
8.4659e-10
5.97087e-06
1.41951e-08
5.9737e-06
1.20126e-08
5.96908e-06
2.5639e-08
5.9726e-06
2.56674e-08
5.96753e-06
4.21036e-08
5.96703e-06
4.66836e-08
5.95513e-06
6.55003e-08
5.94898e-06
6.88756e-08
5.93206e-06
8.67284e-08
5.91938e-06
9.23984e-08
1.02797e-07
5.90438e-06
6.26819e-06
-5.32217e-08
6.26549e-06
-4.38507e-08
6.27621e-06
-4.23147e-08
6.27069e-06
5.23529e-09
6.27857e-06
-2.349e-08
6.26603e-06
9.58088e-09
6.27544e-06
-3.81348e-08
6.26431e-06
2.04614e-09
6.27565e-06
-4.28704e-08
6.26474e-06
2.47923e-09
6.27577e-06
-3.75313e-08
6.26488e-06
6.11879e-09
6.27485e-06
-3.08313e-08
6.26432e-06
8.79673e-09
6.27319e-06
-2.32866e-08
6.26243e-06
1.21317e-08
6.26936e-06
-1.41116e-08
6.25855e-06
1.64854e-08
6.26387e-06
-4.47813e-09
6.25644e-06
2.16312e-08
6.25983e-06
8.61949e-09
6.25343e-06
3.20392e-08
6.25537e-06
2.37266e-08
6.25305e-06
4.44225e-08
6.26064e-06
3.90984e-08
6.25657e-06
6.95615e-08
6.24764e-06
7.78145e-08
6.21291e-06
1.21451e-07
6.16425e-06
1.41058e-07
1.29491e-07
6.13756e-06
6.56769e-06
-4.54411e-08
6.57726e-06
-5.34265e-08
6.56163e-06
-2.66774e-08
6.5807e-06
-1.38337e-08
6.56118e-06
-3.97224e-09
6.58169e-06
-1.09296e-08
6.55962e-06
-1.6069e-08
6.58147e-06
-1.98032e-08
6.5595e-06
-2.09026e-08
6.58161e-06
-1.96239e-08
6.55959e-06
-1.5514e-08
6.58095e-06
-1.52381e-08
6.55964e-06
-9.51928e-09
6.57981e-06
-1.1373e-08
6.55999e-06
-3.46944e-09
6.57818e-06
-6.05965e-09
6.56044e-06
3.62403e-09
6.57514e-06
1.79022e-09
6.55838e-06
1.2278e-08
6.56713e-06
1.28818e-08
6.55465e-06
2.11054e-08
6.56139e-06
2.52957e-08
6.54826e-06
3.6857e-08
6.55049e-06
4.21878e-08
6.54183e-06
4.77581e-08
6.56945e-06
4.19461e-08
6.60381e-06
4.34505e-08
6.68537e-06
3.98938e-08
6.7855e-06
4.09243e-08
5.86729e-08
6.85632e-06
6.88449e-06
-4.01398e-08
6.87789e-06
-4.68265e-08
6.89036e-06
-3.91474e-08
6.88217e-06
-5.64325e-09
6.89363e-06
-1.54347e-08
6.88268e-06
2.03063e-11
6.88963e-06
-2.30193e-08
6.88128e-06
-1.145e-08
6.88723e-06
-2.68586e-08
6.88076e-06
-1.31545e-08
6.88705e-06
-2.1801e-08
6.88027e-06
-8.45139e-09
6.88571e-06
-1.49686e-08
6.87715e-06
-2.8083e-09
6.88137e-06
-7.68882e-09
6.87323e-06
2.07752e-09
6.87754e-06
-6.87521e-10
6.87075e-06
8.5843e-09
6.87427e-06
8.75503e-09
6.8693e-06
1.78531e-08
6.87191e-06
1.84966e-08
6.87236e-06
2.48434e-08
6.886e-06
2.32209e-08
6.89867e-06
2.95122e-08
6.90994e-06
3.64912e-08
6.89651e-06
5.53724e-08
6.86926e-06
7.07097e-08
6.81678e-06
9.2373e-08
6.75067e-06
1.07029e-07
8.18954e-08
6.72745e-06
7.21239e-06
-3.33977e-08
7.22455e-06
-5.89795e-08
7.20214e-06
-1.67385e-08
7.22651e-06
-3.00187e-08
7.2025e-06
8.57521e-09
7.22814e-06
-2.56141e-08
7.20195e-06
3.16771e-09
7.22731e-06
-3.68124e-08
7.20321e-06
-2.75731e-09
7.22571e-06
-3.56571e-08
7.20446e-06
-5.41975e-10
7.22378e-06
-2.77715e-08
7.20544e-06
3.37141e-09
7.22197e-06
-1.93472e-08
7.20614e-06
8.14365e-09
7.21748e-06
-9.25929e-09
7.20223e-06
1.45621e-08
7.2099e-06
9.10297e-10
7.19825e-06
2.04069e-08
7.20507e-06
1.10344e-08
7.19702e-06
2.65447e-08
7.20197e-06
1.99005e-08
7.18984e-06
3.53445e-08
7.19028e-06
2.90718e-08
7.19044e-06
3.63332e-08
7.22194e-06
2.38753e-08
7.26897e-06
2.36725e-08
7.35259e-06