/*--------------------------------*- C++ -*----------------------------------*\
| =========                 |                                                 |
| \\      /  F ield         | OpenFOAM: The Open Source CFD Toolbox           |
|  \\    /   O peration     | Version:  v2006                                 |
|   \\  /    A nd           | Website:  www.openfoam.com                      |
|    \\/     M anipulation  |                                                 |
\*---------------------------------------------------------------------------*/
FoamFile
{
    version     2.0;
    format      ascii;
    class       volVectorField;
    location    "1.4";
    object      U;
}
// * * * * * * * * * * * * * * * * * * * * * * * * * * * * * * * * * * * * * //

dimensions      [0 1 -1 0 0 0 0];


internalField   nonuniform List<vector> 
26400
(
(0.909082 -0.00480364 0)
(1.09182 0.00447798 0)
(0.91306 -0.00423206 0)
(1.09156 0.00384251 0)
(0.919442 -0.00387279 0)
(1.09214 0.0032866 0)
(0.925081 -0.00350428 0)
(1.09255 0.00291204 0)
(0.930018 -0.00311841 0)
(1.09311 0.002486 0)
(0.934313 -0.00281038 0)
(1.09366 0.00204548 0)
(0.937922 -0.00256047 0)
(1.09416 0.00168253 0)
(0.940806 -0.00232834 0)
(1.0947 0.00141243 0)
(0.942904 -0.00210382 0)
(1.09543 0.00118638 0)
(0.94411 -0.00188826 0)
(1.09649 0.000968635 0)
(0.944256 -0.00168507 0)
(1.09797 0.000747926 0)
(0.943099 -0.00147997 0)
(1.09993 0.00052712 0)
(0.940296 -0.00121521 0)
(1.10231 0.000294732 0)
(0.935327 -0.000690146 0)
(1.10464 2.2246e-05 0)
(0.92687 0.00110751 0)
(1.1058 0.000364231 0)
(0.915967 -0.00484408 0)
(1.08601 0.0044806 0)
(0.922479 -0.00429794 0)
(1.08569 0.00384055 0)
(0.930494 -0.00394949 0)
(1.08561 0.00328523 0)
(0.937473 -0.00358307 0)
(1.085 0.00291421 0)
(0.943769 -0.00320035 0)
(1.08415 0.00249135 0)
(0.949563 -0.00289355 0)
(1.08291 0.00205494 0)
(0.954932 -0.00264256 0)
(1.08118 0.00169703 0)
(0.960012 -0.00240799 0)
(1.07891 0.00143242 0)
(0.964973 -0.00218048 0)
(1.07601 0.00121338 0)
(0.970006 -0.00196064 0)
(1.07229 0.00100666 0)
(0.975337 -0.00175063 0)
(1.06739 0.000805419 0)
(0.98124 -0.0015298 0)
(1.0608 0.00061234 0)
(0.988014 -0.0012209 0)
(1.05181 0.000394674 0)
(0.995842 -0.000567208 0)
(1.03913 0.000206072 0)
(1.00442 0.0020147 0)
(1.02014 0.00151259 0)
(0.928135 -0.00489042 0)
(1.07424 0.00445739 0)
(0.937583 -0.00436048 0)
(1.0736 0.00381383 0)
(0.947692 -0.00401378 0)
(1.07246 0.00325963 0)
(0.956401 -0.00363919 0)
(1.07036 0.00288794 0)
(0.964314 -0.00324768 0)
(1.06763 0.00246154 0)
(0.971654 -0.00292714 0)
(1.06424 0.00201833 0)
(0.978538 -0.00265599 0)
(1.06019 0.00164762 0)
(0.985124 -0.00239337 0)
(1.05554 0.00136086 0)
(0.991508 -0.00212681 0)
(1.05035 0.00110747 0)
(0.997685 -0.00185127 0)
(1.0447 0.000850148 0)
(1.00353 -0.0015625 0)
(1.03867 0.000579442 0)
(1.0088 -0.00123889 0)
(1.03242 0.000305534 0)
(1.01308 -0.000823084 0)
(1.02616 4.72451e-05 0)
(1.01569 -0.000144721 0)
(1.01995 4.7413e-05 0)
(1.01547 0.00216063 0)
(1.01421 0.00375844 0)
(0.94343 -0.0049235 0)
(1.05836 0.00438214 0)
(0.954416 -0.00439474 0)
(1.05722 0.00373809 0)
(0.965613 -0.00403513 0)
(1.05518 0.0031832 0)
(0.975063 -0.00363997 0)
(1.05206 0.00280525 0)
(0.983405 -0.00322655 0)
(1.04833 0.00236915 0)
(0.990767 -0.00288071 0)
(1.04412 0.00191268 0)
(0.997225 -0.00258123 0)
(1.03969 0.001524 0)
(1.00288 -0.00228758 0)
(1.03525 0.0012154 0)
(1.00775 -0.00198825 0)
(1.03102 0.000940241 0)
(1.01172 -0.0016798 0)
(1.02714 0.000665788 0)
(1.01468 -0.00136006 0)
(1.0237 0.000389713 0)
(1.01648 -0.00101345 0)
(1.0207 0.000133658 0)
(1.01701 -0.000581513 0)
(1.01801 -4.64757e-05 0)
(1.01608 0.000145028 0)
(1.0152 0.00023621 0)
(1.0134 0.00254254 0)
(1.01234 0.00593786 0)
(0.959187 -0.00493531 0)
(1.04142 0.00426691 0)
(0.969619 -0.00439873 0)
(1.03993 0.00362394 0)
(0.980152 -0.00401983 0)
(1.03763 0.00306834 0)
(0.988727 -0.00360136 0)
(1.03457 0.00268531 0)
(0.995913 -0.00316483 0)
(1.0312 0.00224427 0)
(1.00174 -0.00279692 0)
(1.02779 0.00178302 0)
(1.00632 -0.0024784 0)
(1.02462 0.00138919 0)
(1.00984 -0.00216888 0)
(1.0219 0.00107678 0)
(1.01241 -0.0018564 0)
(1.01967 0.000802513 0)
(1.01408 -0.00153725 0)
(1.01789 0.000536345 0)
(1.01489 -0.00121013 0)
(1.01643 0.000281765 0)
(1.01489 -0.000862035 0)
(1.01507 6.4404e-05 0)
(1.01412 -0.000463147 0)
(1.01355 -8.66277e-06 0)
(1.01249 1.984e-05 0)
(1.01145 0.00108771 0)
(1.00989 0.00164581 0)
(1.00915 0.00842955 0)
(0.97303 -0.00492384 0)
(1.02636 0.00413807 0)
(0.981202 -0.00437811 0)
(1.0249 0.00349792 0)
(0.989648 -0.00398238 0)
(1.02303 0.00294393 0)
(0.996201 -0.00354605 0)
(1.02081 0.00256089 0)
(1.00139 -0.00309253 0)
(1.01861 0.0021231 0)
(1.00521 -0.00271042 0)
(1.01658 0.00166636 0)
(1.00787 -0.00238213 0)
(1.01493 0.00127595 0)
(1.00965 -0.0020656 0)
(1.01369 0.000966117 0)
(1.01077 -0.00174581 0)
(1.0128 0.00069569 0)
(1.01132 -0.0014183 0)
(1.0121 0.000438318 0)
(1.01137 -0.00108489 0)
(1.0114 0.000203802 0)
(1.01094 -0.000733291 0)
(1.01052 2.7109e-05 0)
(1.00998 -0.000360092 0)
(1.00924 4.31836e-05 0)
(1.0084 0.000214458 0)
(1.0073 0.00105231 0)
(1.00621 0.0026028 0)
(1.00548 0.00619581 0)
(0.983603 -0.0048916 0)
(1.01491 0.00401725 0)
(0.988808 -0.00434047 0)
(1.01379 0.00338155 0)
(0.994684 -0.00393403 0)
(1.01264 0.0028305 0)
(0.999005 -0.00348661 0)
(1.01142 0.00244977 0)
(1.00228 -0.00302149 0)
(1.01033 0.00201771 0)
(1.00451 -0.00262902 0)
(1.00939 0.0015659 0)
(1.00591 -0.00229268 0)
(1.00869 0.00117578 0)
(1.00677 -0.00196744 0)
(1.00823 0.000860804 0)
(1.00727 -0.00163412 0)
(1.00791 0.000582231 0)
(1.00747 -0.00128741 0)
(1.00759 0.000316462 0)
(1.00736 -0.000929091 0)
(1.00712 7.43819e-05 0)
(1.00687 -0.000536152 0)
(1.00638 -0.000102429 0)
(1.00594 -0.00010506 0)
(1.00521 -0.000106287 0)
(1.00442 0.000761058 0)
(1.00344 0.000584264 0)
(1.00238 0.00408926 0)
(1.00194 0.0046639 0)
(0.99074 -0.00484343 0)
(1.0073 0.00391409 0)
(0.993226 -0.00429157 0)
(1.00659 0.00328298 0)
(0.996874 -0.00387971 0)
(1.00609 0.00273317 0)
(0.999416 -0.0034254 0)
(1.00557 0.00235289 0)
(1.00132 -0.00295133 0)
(1.00516 0.00192398 0)
(1.00256 -0.00254972 0)
(1.0048 0.00147387 0)
(1.00328 -0.00220607 0)
(1.00453 0.00108133 0)
(1.00372 -0.00187393 0)
(1.00436 0.000761537 0)
(1.00398 -0.00153325 0)
(1.00422 0.000481471 0)
(1.00405 -0.00118043 0)
(1.00401 0.000222953 0)
(1.00388 -0.000821838 0)
(1.00363 2.75571e-06 0)
(1.00338 -0.000457408 0)
(1.00294 -9.97492e-05 0)
(1.00246 -8.31018e-05 0)
(1.00182 0.000138593 0)
(1.00099 0.000286489 0)
(1.0002 0.00185629 0)
(0.999211 0.00259779 0)
(0.998975 0.0102089 0)
(0.995077 -0.00478374 0)
(1.00277 0.00382703 0)
(0.995584 -0.00423401 0)
(1.0024 0.00319908 0)
(0.997697 -0.00381963 0)
(1.00229 0.00264672 0)
(0.999082 -0.00335977 0)
(1.00212 0.00226303 0)
(1.00015 -0.00287727 0)
(1.00201 0.00183283 0)
(1.00082 -0.00246601 0)
(1.00188 0.00138042 0)
(1.00119 -0.00211397 0)
(1.00175 0.000982576 0)
(1.0014 -0.00177414 0)
(1.00166 0.000656638 0)
(1.00152 -0.0014255 0)
(1.00157 0.0003742 0)
(1.0015 -0.00106606 0)
(1.00138 0.000124072 0)
(1.00127 -0.000702134 0)
(1.001 -7.46797e-05 0)
(1.00074 -0.000349579 0)
(1.00031 -0.000128329 0)
(0.999828 2.00123e-05 0)
(0.999169 0.000197054 0)
(0.998456 0.000404366 0)
(0.997618 0.00203701 0)
(0.99719 0.00232043 0)
(0.996667 0.0100182 0)
(0.997505 -0.00471522 0)
(1.00029 0.00374872 0)
(0.996798 -0.00416822 0)
(1.00012 0.00312207 0)
(0.998013 -0.00375241 0)
(1.0002 0.00256341 0)
(0.998738 -0.00328682 0)
(1.00015 0.00217306 0)
(0.999315 -0.00279542 0)
(1.00015 0.00173759 0)
(0.99967 -0.00237299 0)
(1.00009 0.00127852 0)
(0.999826 -0.00200903 0)
(1.00001 0.000870197 0)
(0.999892 -0.00165605 0)
(0.999921 0.000531297 0)
(0.999896 -0.00129171 0)
(0.999808 0.000238315 0)
(0.999793 -0.000916138 0)
(0.999599 -1.67322e-05 0)
(0.999507 -0.000530955 0)
(0.999204 -0.000211471 0)
(0.998954 -0.000139696 0)
(0.9985 -0.000276425 0)
(0.998026 0.000331163 0)
(0.997355 -0.000105836 0)
(0.996694 0.00138872 0)
(0.99587 0.000760922 0)
(0.995627 0.00392069 0)
(0.995288 0.0026419 0)
(0.998789 -0.00463917 0)
(0.999003 0.00367147 0)
(0.997422 -0.00409374 0)
(0.998927 0.00304495 0)
(0.998166 -0.00367694 0)
(0.999102 0.00247773 0)
(0.998541 -0.00320555 0)
(0.999087 0.00208 0)
(0.998843 -0.00270616 0)
(0.999112 0.00163954 0)
(0.999009 -0.00227521 0)
(0.999079 0.00117708 0)
(0.999037 -0.00190502 0)
(0.999002 0.000767206 0)
(0.999003 -0.00155032 0)
(0.998899 0.000431649 0)
(0.998922 -0.00119082 0)
(0.998762 0.000154941 0)
(0.99875 -0.000829353 0)
(0.998528 -6.86633e-05 0)
(0.998412 -0.000477301 0)
(0.998111 -0.000199807 0)
(0.997826 -0.000137694 0)
(0.997394 -0.000174657 0)
(0.996881 0.000304739 0)
(0.996275 0.00014006 0)
(0.995538 0.00137101 0)
(0.994872 0.00100977 0)
(0.994312 0.00403033 0)
(0.994765 0.00165658 0)
(0.999441 -0.00455608 0)
(0.998358 0.00358952 0)
(0.997741 -0.00400956 0)
(0.998332 0.00296249 0)
(0.998255 -0.00359143 0)
(0.998549 0.00238442 0)
(0.998451 -0.00311271 0)
(0.99854 0.00197731 0)
(0.9986 -0.00260314 0)
(0.99857 0.00152826 0)
(0.998659 -0.00215978 0)
(0.998546 0.00105685 0)
(0.998615 -0.00177675 0)
(0.998469 0.0006373 0)
(0.998522 -0.00140929 0)
(0.998351 0.000292882 0)
(0.998388 -0.00103925 0)
(0.99819 1.39762e-05 0)
(0.998171 -0.000666751 0)
(0.99793 -0.000201984 0)
(0.997803 -0.000317923 0)
(0.997489 -0.000305331 0)
(0.997201 1.47678e-05 0)
(0.996757 -0.000237769 0)
(0.996258 0.000448914 0)
(0.995647 0.000223252 0)
(0.99495 0.00128661 0)
(0.994334 0.00165226 0)
(0.993798 0.00395654 0)
(0.994748 0.006119 0)
(0.999761 -0.00446625 0)
(0.998051 0.00349979 0)
(0.997901 -0.00391532 0)
(0.998048 0.00287286 0)
(0.998303 -0.00349632 0)
(0.998291 0.00228348 0)
(0.998413 -0.00301119 0)
(0.998283 0.00186891 0)
(0.998479 -0.00249406 0)
(0.998314 0.00141465 0)
(0.998481 -0.00204366 0)
(0.998296 0.000941759 0)
(0.998399 -0.00165802 0)
(0.998219 0.000526138 0)
(0.998273 -0.00129558 0)
(0.998092 0.00019613 0)
(0.998108 -0.000942629 0)
(0.997917 -5.43434e-05 0)
(0.997864 -0.000603387 0)
(0.997641 -0.00021908 0)
(0.997478 -0.000300335 0)
(0.997187 -0.000242087 0)
(0.996867 -1.87505e-05 0)
(0.99645 -4.2751e-05 0)
(0.995936 0.000281244 0)
(0.99535 0.000638425 0)
(0.994694 0.00100393 0)
(0.994161 0.00244791 0)
(0.993878 0.00365394 0)
(0.994768 0.0103079 0)
(0.999912 -0.00436957 0)
(0.997915 0.00339991 0)
(0.997979 -0.00380948 0)
(0.997925 0.00277331 0)
(0.99833 -0.00338906 0)
(0.998184 0.00217094 0)
(0.998399 -0.00289663 0)
(0.998177 0.00174777 0)
(0.998422 -0.00236992 0)
(0.998209 0.00128611 0)
(0.998394 -0.00191052 0)
(0.998195 0.000809394 0)
(0.998295 -0.00151864 0)
(0.998119 0.000394139 0)
(0.998156 -0.00115633 0)
(0.997987 7.26614e-05 0)
(0.997976 -0.000809921 0)
(0.997802 -0.000160572 0)
(0.997721 -0.0004961 0)
(0.997514 -0.000286412 0)
(0.99733 -0.00021771 0)
(0.997049 -0.000261578 0)
(0.996726 5.95876e-05 0)
(0.996301 -1.0918e-05 0)
(0.995824 0.000481909 0)
(0.995225 0.000644658 0)
(0.994658 0.00150294 0)
(0.994163 0.00237609 0)
(0.994402 0.00399357 0)
(0.995092 0.00645032 0)
(0.999985 -0.004266 0)
(0.997859 0.00328878 0)
(0.998023 -0.00369154 0)
(0.997874 0.00266352 0)
(0.998351 -0.00327019 0)
(0.998144 0.00204772 0)
(0.998403 -0.00277144 0)
(0.99814 0.00161718 0)
(0.998404 -0.00223722 0)
(0.998173 0.00115176 0)
(0.99836 -0.00177389 0)
(0.998162 0.000676897 0)
(0.998252 -0.00138286 0)
(0.998091 0.000272084 0)
(0.998105 -0.00103088 0)
(0.997959 -2.907e-05 0)
(0.997917 -0.000704479 0)
(0.997772 -0.000228772 0)
(0.997654 -0.000422684 0)
(0.997482 -0.000303906 0)
(0.997259 -0.000178405 0)
(0.997018 -0.000232386 0)
(0.996657 0.000101447 0)
(0.996291 -1.08381e-05 0)
(0.995768 0.000722463 0)
(0.995265 0.000584452 0)
(0.994674 0.00207669 0)
(0.994289 0.00227572 0)
(0.994221 0.00461125 0)
(0.99555 0.00288084 0)
(1.00002 -0.00415512 0)
(0.997837 0.00316493 0)
(0.998055 -0.00356004 0)
(0.997852 0.00254147 0)
(0.998374 -0.00313743 0)
(0.998127 0.00191061 0)
(0.998423 -0.00263252 0)
(0.998123 0.00147299 0)
(0.998414 -0.00209164 0)
(0.998153 0.00100477 0)
(0.998365 -0.00162473 0)
(0.998142 0.000532183 0)
(0.998257 -0.00123709 0)
(0.998069 0.000141711 0)
(0.998112 -0.000902988 0)
(0.997935 -0.000130282 0)
(0.997925 -0.000614426 0)
(0.997743 -0.000280554 0)
(0.997665 -0.000378164 0)
(0.997447 -0.000291197 0)
(0.997277 -0.000180552 0)
(0.996983 -0.000147023 0)
(0.996683 7.15547e-05 0)
(0.996275 0.000216577 0)
(0.995824 0.000559335 0)
(0.995307 0.00104604 0)
(0.994816 0.00182249 0)
(0.994443 0.00307982 0)
(0.994402 0.00482363 0)
(0.996216 0.00718984 0)
(1.00004 -0.00403742 0)
(0.997834 0.00302881 0)
(0.998077 -0.00341574 0)
(0.997848 0.00240931 0)
(0.99839 -0.00299394 0)
(0.998128 0.00176525 0)
(0.998439 -0.00248712 0)
(0.998126 0.00132538 0)
(0.998424 -0.00194499 0)
(0.998156 0.000861294 0)
(0.99837 -0.00148334 0)
(0.998145 0.00040344 0)
(0.998261 -0.00111469 0)
(0.998074 4.47158e-05 0)
(0.998117 -0.000819852 0)
(0.997941 -0.000177737 0)
(0.997932 -0.000589777 0)
(0.997748 -0.00026111 0)
(0.997675 -0.00041407 0)
(0.997452 -0.00019891 0)
(0.997292 -0.000265991 0)
(0.996993 2.05391e-05 0)
(0.996716 -9.31334e-05 0)
(0.996296 0.000582316 0)
(0.995894 0.000311621 0)
(0.995387 0.00164699 0)
(0.99499 0.0014599 0)
(0.994709 0.0039253 0)
(0.994916 0.00491308 0)
(0.996434 0.0117358 0)
(1.00005 -0.00391099 0)
(0.997849 0.00287659 0)
(0.998089 -0.00325471 0)
(0.997861 0.00226168 0)
(0.998396 -0.00283352 0)
(0.998147 0.00160324 0)
(0.998446 -0.00232502 0)
(0.998149 0.00116131 0)
(0.998426 -0.00178169 0)
(0.998179 0.000702873 0)
(0.998369 -0.00132682 0)
(0.998169 0.000261288 0)
(0.998261 -0.000975784 0)
(0.998097 -6.82398e-05 0)
(0.99812 -0.000707639 0)
(0.997962 -0.000249078 0)
(0.99794 -0.000518028 0)
(0.997767 -0.000285233 0)
(0.99769 -0.000366145 0)
(0.997469 -0.000204615 0)
(0.997318 -0.000194934 0)
(0.997008 -3.34586e-06 0)
(0.996769 0.000101904 0)
(0.996333 0.000428483 0)
(0.99599 0.000753312 0)
(0.995479 0.00144095 0)
(0.995192 0.00224624 0)
(0.995016 0.00352252 0)
(0.995793 0.00497781 0)
(0.996858 0.00698591 0)
(1.00006 -0.00377726 0)
(0.997869 0.00271088 0)
(0.998102 -0.0030804 0)
(0.997881 0.00210174 0)
(0.998404 -0.00266114 0)
(0.998174 0.00142862 0)
(0.998455 -0.0021539 0)
(0.998183 0.000987225 0)
(0.998428 -0.00161472 0)
(0.998216 0.000540874 0)
(0.998366 -0.00117502 0)
(0.998208 0.000124026 0)
(0.998256 -0.000873985 0)
(0.998138 -0.000161152 0)
(0.998116 -0.000651155 0)
(0.998004 -0.000288209 0)
(0.997938 -0.00050046 0)
(0.997812 -0.000280626 0)
(0.99769 -0.000357248 0)
(0.99752 -0.000187583 0)
(0.99732 -0.00015385 0)
(0.99708 -2.38946e-05 0)
(0.996776 0.000271341 0)
(0.996438 0.000295514 0)
(0.996045 0.00114824 0)
(0.995669 0.00129023 0)
(0.995336 0.00296735 0)
(0.995226 0.00331605 0)
(0.995544 0.0051412 0)
(0.99739 0.00277049 0)
(1.00007 -0.00364107 0)
(0.997883 0.00253911 0)
(0.998127 -0.00289999 0)
(0.997888 0.00194553 0)
(0.998426 -0.00249238 0)
(0.998185 0.00127047 0)
(0.998484 -0.00200074 0)
(0.998195 0.000846852 0)
(0.998458 -0.00148263 0)
(0.998225 0.000431326 0)
(0.998396 -0.00107437 0)
(0.99821 6.50007e-05 0)
(0.998292 -0.000793153 0)
(0.998137 -0.000175835 0)
(0.99816 -0.000631169 0)
(0.998 -0.000247831 0)
(0.99799 -0.000527091 0)
(0.997806 -0.000194786 0)
(0.997748 -0.000410121 0)
(0.997517 -5.35907e-05 0)
(0.997383 -0.000217431 0)
(0.99709 0.000175741 0)
(0.996855 0.0001145 0)
(0.99649 0.000661307 0)
(0.996183 0.000919913 0)
(0.995809 0.00182604 0)
(0.995577 0.00267081 0)
(0.995447 0.00426929 0)
(0.995726 0.00579807 0)
(0.99819 0.00770756 0)
(1.00007 -0.00347843 0)
(0.997909 0.00232242 0)
(0.998142 -0.00267372 0)
(0.997907 0.00173023 0)
(0.998437 -0.00226156 0)
(0.998207 0.00103104 0)
(0.998501 -0.00176708 0)
(0.99822 0.000604947 0)
(0.998473 -0.001252 0)
(0.998249 0.000200241 0)
(0.998411 -0.000870212 0)
(0.998234 -0.000134972 0)
(0.998308 -0.000626351 0)
(0.998157 -0.00032253 0)
(0.998182 -0.000517052 0)
(0.998018 -0.000332124 0)
(0.998017 -0.000474754 0)
(0.997827 -0.000215375 0)
(0.997781 -0.000438855 0)
(0.997545 1.98009e-05 0)
(0.997425 -0.000349735 0)
(0.997127 0.000444571 0)
(0.996921 -0.000107368 0)
(0.996563 0.00122972 0)
(0.996308 0.000573467 0)
(0.995973 0.0025682 0)
(0.99585 0.0021552 0)
(0.995833 0.00531648 0)
(0.996304 0.00625868 0)
(0.998087 0.0129953 0)
(1.00005 -0.00334867 0)
(0.997962 0.00215525 0)
(0.998138 -0.0024994 0)
(0.997952 0.00159786 0)
(0.998426 -0.002121 0)
(0.998259 0.000919136 0)
(0.998497 -0.00167498 0)
(0.998275 0.000543623 0)
(0.998468 -0.00121713 0)
(0.998301 0.00021494 0)
(0.998407 -0.000922625 0)
(0.99828 -4.05561e-05 0)
(0.998311 -0.000795266 0)
(0.998198 -0.000129588 0)
(0.998194 -0.000747121 0)
(0.998054 -9.42331e-05 0)
(0.998038 -0.000705455 0)
(0.997858 -1.94301e-06 0)
(0.997814 -0.000604893 0)
(0.997575 0.000140758 0)
(0.997481 -0.000378697 0)
(0.997168 0.000439865 0)
(0.997018 0.000108726 0)
(0.996639 0.00106689 0)
(0.996457 0.00105367 0)
(0.996128 0.00238241 0)
(0.996148 0.00301189 0)
(0.996305 0.00477248 0)
(0.997393 0.00578655 0)
(0.998367 0.00708423 0)
(1.00004 -0.00314902 0)
(0.998024 0.0018765 0)
(0.998137 -0.00221201 0)
(0.998007 0.00132127 0)
(0.998419 -0.00182505 0)
(0.99832 0.000617716 0)
(0.998496 -0.00137564 0)
(0.998342 0.000240642 0)
(0.998465 -0.000911152 0)
(0.998366 -7.11613e-05 0)
(0.998402 -0.000586975 0)
(0.998343 -0.000336742 0)
(0.99831 -0.0004188 0)
(0.99826 -0.000470406 0)
(0.998194 -0.000293756 0)
(0.998121 -0.000531744 0)
(0.998036 -0.000121028 0)
(0.997936 -0.00056342 0)
(0.997807 0.000162168 0)
(0.997672 -0.000574024 0)
(0.997476 0.00056529 0)
(0.997294 -0.000473613 0)
(0.997031 0.00121714 0)
(0.996813 -4.09357e-05 0)
(0.996556 0.0023405 0)
(0.996428 0.00125186 0)
(0.996341 0.00448282 0)
(0.996485 0.00355467 0)
(0.996806 0.00650617 0)
(0.998864 0.00253334 0)
(1.00004 -0.00301548 0)
(0.998068 0.00169634 0)
(0.998163 -0.00202999 0)
(0.998034 0.00118771 0)
(0.998442 -0.0016881 0)
(0.998349 0.000514088 0)
(0.998533 -0.00131064 0)
(0.998372 0.000203431 0)
(0.998507 -0.00094922 0)
(0.99839 8.71929e-07 0)
(0.998447 -0.000776985 0)
(0.998357 -0.000108062 0)
(0.998362 -0.000768162 0)
(0.998272 -8.74949e-05 0)
(0.998251 -0.0008112 0)
(0.998133 2.69213e-05 0)
(0.998098 -0.000845069 0)
(0.997954 0.00022546 0)
(0.997874 -0.000834529 0)
(0.997693 0.000601409 0)
(0.997555 -0.000746637 0)
(0.997335 0.00114269 0)
(0.997145 -0.000452498 0)
(0.996907 0.00207737 0)
(0.996747 0.000402051 0)
(0.996625 0.00354228 0)
(0.996669 0.00201402 0)
(0.99683 0.00623366 0)
(0.997214 0.0060909 0)
(0.999074 0.0136076 0)
(1.00003 -0.00281195 0)
(0.998138 0.00141656 0)
(0.998172 -0.00174366 0)
(0.998089 0.000933925 0)
(0.998442 -0.00141788 0)
(0.998409 0.000268197 0)
(0.998543 -0.00108233 0)
(0.998434 -1.10208e-05 0)
(0.998521 -0.000764865 0)
(0.998444 -0.000166554 0)
(0.998466 -0.000645339 0)
(0.998404 -0.000233544 0)
(0.998388 -0.000632739 0)
(0.998313 -0.000236664 0)
(0.998286 -0.000616533 0)
(0.99817 -0.000220202 0)
(0.998144 -0.00054299 0)
(0.997986 -0.000176675 0)
(0.997947 -0.000396541 0)
(0.997728 -7.8684e-06 0)
(0.997653 -4.71457e-05 0)
(0.997381 0.000431009 0)
(0.997292 0.000511263 0)
(0.997003 0.0012165 0)
(0.996944 0.00157979 0)
(0.996788 0.00267097 0)
(0.997035 0.00345295 0)
(0.99746 0.00482474 0)
(0.998698 0.00580891 0)
(0.999279 0.00720623 0)
(1.00003 -0.00266051 0)
(0.998209 0.00119694 0)
(0.998196 -0.00152922 0)
(0.998144 0.000767307 0)
(0.998453 -0.00124227 0)
(0.998472 0.00013628 0)
(0.998562 -0.000940216 0)
(0.998503 -9.96411e-05 0)
(0.998539 -0.000662329 0)
(0.998513 -0.00021329 0)
(0.998482 -0.000535381 0)
(0.998474 -0.000300368 0)
(0.998399 -0.000463746 0)
(0.99839 -0.000368541 0)
(0.998288 -0.000307628 0)
(0.99826 -0.000460639 0)
(0.998137 -4.33149e-05 0)
(0.998093 -0.000576863 0)
(0.997931 0.000371159 0)
(0.997865 -0.000706781 0)
(0.997659 0.000955305 0)
(0.997548 -0.000649227 0)
(0.997322 0.00180233 0)
(0.997226 -0.000197776 0)
(0.997084 0.00311011 0)
(0.997136 0.00122988 0)
(0.997204 0.00537683 0)
(0.997477 0.00336372 0)
(0.997831 0.00649052 0)
(0.999793 0.000928648 0)
(1.00008 -0.0024243 0)
(0.998224 0.000877709 0)
(0.998282 -0.00122488 0)
(0.998132 0.000491285 0)
(0.998532 -0.000979552 0)
(0.998462 -0.00010888 0)
(0.998656 -0.000766895 0)
(0.998493 -0.000257504 0)
(0.998638 -0.000592651 0)
(0.998496 -0.000245294 0)
(0.998582 -0.000621724 0)
(0.998455 -0.000177492 0)
(0.998501 -0.000760524 0)
(0.998378 -3.11146e-05 0)
(0.998391 -0.000938631 0)
(0.998256 0.000232667 0)
(0.998239 -0.0010695 0)
(0.998105 0.000567901 0)
(0.998031 -0.00109376 0)
(0.997891 0.000976662 0)
(0.997756 -0.000962138 0)
(0.997612 0.00150621 0)
(0.997462 -0.000468321 0)
(0.997358 0.00233756 0)
(0.997321 0.000522941 0)
(0.997402 0.00374581 0)
(0.997606 0.00250224 0)
(0.99785 0.00689902 0)
(0.998134 0.00735225 0)
(0.999914 0.0135451 0)
(1.00009 -0.00232536 0)
(0.998289 0.00074306 0)
(0.998329 -0.00109572 0)
(0.998166 0.000439764 0)
(0.998568 -0.000918326 0)
(0.998494 -0.000129096 0)
(0.998709 -0.000810933 0)
(0.998527 -0.000215774 0)
(0.9987 -0.000682938 0)
(0.998519 -0.000171616 0)
(0.998649 -0.000707593 0)
(0.998466 -0.000108322 0)
(0.998577 -0.000816193 0)
(0.998374 2.43436e-05 0)
(0.998485 -0.00096226 0)
(0.998247 0.000284516 0)
(0.99835 -0.00108404 0)
(0.998092 0.000632272 0)
(0.998164 -0.00113929 0)
(0.99789 0.00110953 0)
(0.997924 -0.00101503 0)
(0.997645 0.00179254 0)
(0.997658 -0.000572472 0)
(0.997441 0.00273441 0)
(0.997564 0.000332917 0)
(0.997617 0.00397814 0)
(0.998157 0.00192797 0)
(0.998799 0.00660861 0)
(0.99982 0.00669237 0)
(0.999338 0.0134954 0)
(1.00005 -0.00204827 0)
(0.998424 0.000355928 0)
(0.998329 -0.000698065 0)
(0.998266 0.000103064 0)
(0.998552 -0.00049097 0)
(0.998595 -0.000462141 0)
(0.99871 -0.000396444 0)
(0.998631 -0.000589089 0)
(0.998705 -0.000206959 0)
(0.998621 -0.000663748 0)
(0.998652 -7.16517e-05 0)
(0.998568 -0.000801884 0)
(0.998582 6.54137e-05 0)
(0.998482 -0.000936551 0)
(0.998495 0.00027294 0)
(0.998356 -0.00106332 0)
(0.998365 0.000545884 0)
(0.998206 -0.00111894 0)
(0.998191 0.000890378 0)
(0.998013 -0.00101812 0)
(0.997973 0.00132825 0)
(0.99779 -0.000659344 0)
(0.997757 0.00198033 0)
(0.997638 0.000113838 0)
(0.997719 0.00305458 0)
(0.997865 0.00122898 0)
(0.998413 0.00411019 0)
(0.999222 0.00167689 0)
(1.00029 0.0034964 0)
(0.999827 0.000114647 0)
(1.00003 -0.00191292 0)
(0.998551 0.000175687 0)
(0.998359 -0.000679188 0)
(0.998353 9.65369e-05 0)
(0.998569 -0.000653102 0)
(0.998676 -0.000313106 0)
(0.998744 -0.000676907 0)
(0.998718 -0.000344434 0)
(0.998739 -0.00055151 0)
(0.998706 -0.000358565 0)
(0.998681 -0.000452095 0)
(0.998655 -0.000448405 0)
(0.998608 -0.000345987 0)
(0.998574 -0.000553421 0)
(0.998516 -0.000187765 0)
(0.998461 -0.000678054 0)
(0.99839 8.02367e-05 0)
(0.998325 -0.000713241 0)
(0.99823 0.000444621 0)
(0.998148 -0.000572202 0)
(0.998044 0.000938536 0)
(0.997958 -0.000119916 0)
(0.997879 0.00168535 0)
(0.997866 0.000736391 0)
(0.997892 0.00274056 0)
(0.998059 0.00184724 0)
(0.998323 0.00346328 0)
(0.998762 0.00155498 0)
(0.999364 0.00188394 0)
(1.00156 0.00016626 0)
(1.00004 -0.00176042 0)
(0.998629 -3.59524e-05 0)
(0.998442 -0.000475309 0)
(0.998385 -4.39762e-05 0)
(0.998638 -0.000272759 0)
(0.99871 -0.000547577 0)
(0.998829 -0.000365164 0)
(0.99876 -0.000597873 0)
(0.998825 -0.000265657 0)
(0.998747 -0.000598576 0)
(0.998764 -0.000203735 0)
(0.998697 -0.000608957 0)
(0.998691 -0.000181181 0)
(0.99862 -0.000576813 0)
(0.998597 -0.000146646 0)
(0.998517 -0.000506428 0)
(0.998476 -8.02055e-05 0)
(0.998393 -0.000370848 0)
(0.99833 9.47638e-05 0)
(0.998237 -7.55389e-05 0)
(0.998175 0.000472839 0)
(0.998085 0.000475942 0)
(0.99806 0.00116799 0)
(0.99803 0.00130751 0)
(0.998107 0.00205905 0)
(0.998197 0.00239177 0)
(0.998427 0.003207 0)
(0.998896 0.00385775 0)
(1.00003 0.00490537 0)
(1.00379 0.006115 0)
(1.00004 -0.00145302 0)
(0.998752 -0.00036761 0)
(0.998507 -0.0002855 0)
(0.998476 -0.00016526 0)
(0.998672 -0.000267739 0)
(0.998774 -0.000439281 0)
(0.998885 -0.000518527 0)
(0.998835 -0.000385057 0)
(0.998885 -0.000596958 0)
(0.998821 -0.000224813 0)
(0.998825 -0.00070841 0)
(0.998766 -3.13641e-05 0)
(0.998757 -0.000880787 0)
(0.998689 0.000194902 0)
(0.998669 -0.00104585 0)
(0.998584 0.000474419 0)
(0.998555 -0.00111001 0)
(0.998471 0.000768234 0)
(0.998427 -0.000979124 0)
(0.998342 0.00117867 0)
(0.9983 -0.000565878 0)
(0.998237 0.00177542 0)
(0.998213 0.000157341 0)
(0.998217 0.00249392 0)
(0.998314 0.00100989 0)
(0.998517 0.00351114 0)
(0.998901 0.00250606 0)
(0.99944 0.00637212 0)
(1.00024 0.00742336 0)
(1.00288 0.012447 0)
(1.00002 -0.00157789 0)
(0.998871 -0.000253556 0)
(0.998575 -0.000548625 0)
(0.998537 0.000118652 0)
(0.998731 -0.000466653 0)
(0.998835 -0.000228912 0)
(0.998954 -0.000666016 0)
(0.998897 -0.000288339 0)
(0.998967 -0.000658596 0)
(0.998876 -0.000253234 0)
(0.998916 -0.000650148 0)
(0.998812 -0.00021308 0)
(0.998855 -0.000672434 0)
(0.998729 -0.000171529 0)
(0.99878 -0.000676479 0)
(0.998635 -9.97348e-05 0)
(0.998672 -0.000561106 0)
(0.998542 7.84032e-05 0)
(0.998561 -0.000258693 0)
(0.998446 0.00046707 0)
(0.998462 0.000285419 0)
(0.998374 0.00109067 0)
(0.998396 0.00105295 0)
(0.998372 0.0019334 0)
(0.998551 0.00203364 0)
(0.998756 0.0029412 0)
(0.999501 0.00309867 0)
(1.00066 0.00384054 0)
(1.00229 0.00394968 0)
(1.00294 0.00509863 0)
(0.999985 -0.000944497 0)
(0.99904 -0.000934503 0)
(0.998631 1.77178e-05 0)
(0.998685 -0.000476147 0)
(0.998729 0.000262286 0)
(0.998952 -0.000895897 0)
(0.998973 0.00010152 0)
(0.999032 -0.00110319 0)
(0.998986 0.000230024 0)
(0.999014 -0.0011976 0)
(0.99893 0.000409259 0)
(0.998951 -0.00128691 0)
(0.998867 0.000569125 0)
(0.998873 -0.00135599 0)
(0.998789 0.000740884 0)
(0.998784 -0.0013841 0)
(0.998701 0.000941238 0)
(0.998707 -0.00126267 0)
(0.998627 0.00120725 0)
(0.998636 -0.00090793 0)
(0.99857 0.00166692 0)
(0.998595 -0.000245504 0)
(0.998565 0.00243837 0)
(0.998653 0.000810591 0)
(0.998744 0.00351884 0)
(0.999003 0.00184504 0)
(0.999317 0.00413988 0)
(0.999836 0.00132437 0)
(1.00077 0.00211141 0)
(1.00411 -0.000455134 0)
(1.00002 -0.00147835 0)
(0.999101 -0.000235713 0)
(0.998771 -0.000829612 0)
(0.998707 0.000482661 0)
(0.99884 -0.000869937 0)
(0.998967 0.000347143 0)
(0.999079 -0.00115053 0)
(0.999064 0.000243348 0)
(0.999101 -0.00117571 0)
(0.999055 0.000242734 0)
(0.999047 -0.00110968 0)
(0.998995 0.000283062 0)
(0.998984 -0.00103819 0)
(0.998921 0.000349111 0)
(0.99891 -0.000944339 0)
(0.99884 0.000436312 0)
(0.998828 -0.000796749 0)
(0.99877 0.00059378 0)
(0.998768 -0.000503489 0)
(0.99873 0.00094007 0)
(0.998752 1.78108e-05 0)
(0.998756 0.00156923 0)
(0.998812 0.000878343 0)
(0.998869 0.00254488 0)
(0.99899 0.00202808 0)
(0.999139 0.00363006 0)
(0.999434 0.00303105 0)
(1.00013 0.00442531 0)
(1.00185 0.00447165 0)
(1.00626 0.00768759 0)
(1.00003 -0.000562903 0)
(0.999208 -0.00132363 0)
(0.998893 2.8384e-05 0)
(0.998789 -0.000579299 0)
(0.998908 0.000454757 0)
(0.999029 -0.00085209 0)
(0.999153 0.000272156 0)
(0.999139 -0.00105252 0)
(0.999177 0.000229403 0)
(0.999135 -0.0011093 0)
(0.999126 0.000292067 0)
(0.999075 -0.00105595 0)
(0.999067 0.000352676 0)
(0.999003 -0.000967199 0)
(0.998994 0.000412581 0)
(0.998929 -0.000855015 0)
(0.998922 0.000521007 0)
(0.99889 -0.000641894 0)
(0.998896 0.000788692 0)
(0.998884 -0.000225551 0)
(0.998921 0.00130063 0)
(0.998953 0.000474166 0)
(0.999034 0.00206345 0)
(0.999128 0.00144032 0)
(0.999281 0.00315039 0)
(0.999472 0.00294453 0)
(0.999792 0.00504952 0)
(1.00052 0.00527963 0)
(1.00227 0.00681392 0)
(1.00675 0.00522486 0)
(1.00003 -0.00114485 0)
(0.999314 -0.00021263 0)
(0.999019 -0.0011259 0)
(0.998908 0.00058305 0)
(0.998979 -0.00100424 0)
(0.999101 0.00074051 0)
(0.99922 -0.00145071 0)
(0.999214 0.000640311 0)
(0.999257 -0.00168625 0)
(0.999222 0.000690577 0)
(0.999216 -0.00167095 0)
(0.999165 0.00080898 0)
(0.999157 -0.00157174 0)
(0.999094 0.000889795 0)
(0.999087 -0.00139802 0)
(0.999027 0.000981305 0)
(0.999027 -0.00111028 0)
(0.998998 0.00115999 0)
(0.99902 -0.000744633 0)
(0.99903 0.00146073 0)
(0.999091 -0.000191187 0)
(0.999147 0.0020584 0)
(0.999252 0.000651918 0)
(0.999394 0.00294106 0)
(0.999649 0.00173322 0)
(1 0.00428803 0)
(1.00047 0.00400707 0)
(1.00101 0.00821933 0)
(1.00192 0.0096265 0)
(1.00521 0.0137433 0)
(0.999956 -0.000628065 0)
(0.999407 -0.00103073 0)
(0.999048 -0.00034399 0)
(0.998988 -0.000349346 0)
(0.99901 9.39373e-06 0)
(0.999152 -0.000297362 0)
(0.999236 -0.000258255 0)
(0.999276 -0.000539972 0)
(0.999291 -0.000443559 0)
(0.999299 -0.000560952 0)
(0.999261 -0.000397222 0)
(0.999247 -0.000455474 0)
(0.999205 -0.000307869 0)
(0.999186 -0.000344639 0)
(0.999142 -0.000178175 0)
(0.999137 -0.000205215 0)
(0.999098 6.84601e-05 0)
(0.99912 5.83423e-05 0)
(0.999112 0.000429537 0)
(0.999172 0.000482711 0)
(0.999236 0.000945606 0)
(0.999343 0.00111861 0)
(0.999463 0.00176923 0)
(0.999625 0.00218998 0)
(0.999914 0.0029772 0)
(1.00046 0.00330657 0)
(1.00153 0.00384312 0)
(1.00302 0.00391149 0)
(1.00483 0.0042288 0)
(1.00453 0.00365247 0)
(0.999871 -0.000527631 0)
(0.999666 -0.000887245 0)
(0.999113 -0.000491099 0)
(0.999258 -0.000264155 0)
(0.999012 -0.00010153 0)
(0.999362 -0.000235061 0)
(0.999223 -0.000306408 0)
(0.999472 -0.000449052 0)
(0.999299 -0.000417153 0)
(0.999504 -0.000513305 0)
(0.999289 -0.000322768 0)
(0.999445 -0.000454982 0)
(0.999242 -0.000183445 0)
(0.999375 -0.000358454 0)
(0.999188 -8.36587e-06 0)
(0.99933 -0.000207075 0)
(0.999169 0.000212444 0)
(0.999329 5.74346e-05 0)
(0.99922 0.000532153 0)
(0.99941 0.000538511 0)
(0.999374 0.00102741 0)
(0.999635 0.00109831 0)
(0.999711 0.00162423 0)
(1.00004 0.00178093 0)
(1.00017 0.00239809 0)
(1.00054 0.00275765 0)
(1.00078 0.00375277 0)
(1.00127 0.00438028 0)
(1.00171 0.00545522 0)
(1.00475 0.00596139 0)
(0.99994 -0.000887905 0)
(0.999569 -0.000364538 0)
(0.99925 -0.000916994 0)
(0.99919 0.000150909 0)
(0.999146 -0.000599055 0)
(0.999278 0.000268749 0)
(0.999341 -0.000808971 0)
(0.999413 2.40134e-05 0)
(0.999418 -0.000983214 0)
(0.999468 -5.54602e-05 0)
(0.999408 -0.000918888 0)
(0.999427 3.76635e-05 0)
(0.999361 -0.00076244 0)
(0.999378 0.000179564 0)
(0.999314 -0.000544254 0)
(0.999344 0.0003793 0)
(0.999302 -0.000261321 0)