/*--------------------------------*- C++ -*----------------------------------*\
| =========                 |                                                 |
| \\      /  F ield         | OpenFOAM: The Open Source CFD Toolbox           |
|  \\    /   O peration     | Version:  v2006                                 |
|   \\  /    A nd           | Website:  www.openfoam.com                      |
|    \\/     M anipulation  |                                                 |
\*---------------------------------------------------------------------------*/
FoamFile
{
    version     2.0;
    format      ascii;
    class       volScalarField;
    location    "2.2";
    object      p;
}
// * * * * * * * * * * * * * * * * * * * * * * * * * * * * * * * * * * * * * //

dimensions      [0 2 -2 0 0 0 0];


internalField   nonuniform List<scalar> 
26400
(
-1.66935e-08
0.00220835
0.00207032
0.00228708
0.00171262
0.00199542
0.00162476
0.00194673
0.00164796
0.00196081
0.00170848
0.00201403
0.00180078
0.00210213
0.00192746
0.00223797
0.00211195
0.00245261
0.00239326
0.00279212
0.00282916
0.00332638
0.00350601
0.00416174
0.00456367
0.00549323
0.00629999
0.00786939
0.00961236
0.0122454
2.88021e-07
0.00220841
0.00207077
0.00228711
0.00171329
0.00199542
0.00162555
0.00194668
0.00164887
0.00196069
0.00170953
0.0020138
0.00180202
0.00210172
0.00192895
0.00223726
0.00211378
0.00245139
0.00239559
0.00278989
0.00283225
0.00332186
0.00351053
0.004151
0.00457206
0.00545991
0.00631947
0.00772593
0.0096012
0.011558
1.24361e-06
0.0022087
0.00207168
0.00228725
0.00171455
0.00199538
0.00162705
0.00194648
0.00165063
0.00196032
0.00171158
0.00201321
0.00180442
0.0021008
0.00193179
0.00223584
0.00211715
0.00244918
0.00239959
0.00278642
0.00283691
0.00331616
0.00351584
0.00414112
0.00457855
0.00544147
0.00631541
0.00764739
0.00948505
0.0108987
3.34621e-06
0.00220955
0.00207292
0.00228772
0.00171618
0.00199548
0.00162896
0.00194636
0.00165287
0.00195996
0.00171415
0.00201255
0.00180738
0.00209969
0.00193518
0.00223405
0.00212108
0.00244635
0.00240416
0.0027819
0.0028422
0.00330886
0.00352165
0.00412843
0.00458413
0.0054119
0.00631588
0.00752439
0.00925947
0.0103458
7.08534e-06
0.00221085
0.0020745
0.00228839
0.00171812
0.00199561
0.00163117
0.00194617
0.00165543
0.00195944
0.00171705
0.0020116
0.00181064
0.00209814
0.00193888
0.00223161
0.0021253
0.0024426
0.00240903
0.00277612
0.00284767
0.00329993
0.00352725
0.00411347
0.00458706
0.00538378
0.00628387
0.00743365
0.00891118
0.00989771
1.26335e-05
0.00221225
0.00207639
0.00228896
0.0017203
0.00199549
0.00163358
0.00194564
0.00165818
0.00195849
0.00172015
0.00201011
0.00181413
0.00209589
0.00194285
0.00222831
0.00212985
0.00243779
0.00241423
0.00276913
0.00285324
0.00328989
0.00353235
0.00410045
0.0045859
0.00537143
0.00621736
0.00735739
0.00852894
0.00934654
1.98301e-05
0.00221346
0.00207853
0.00228921
0.00172267
0.00199491
0.0016361
0.00194462
0.0016611
0.00195698
0.00172346
0.00200798
0.00181793
0.00209289
0.00194725
0.00222408
0.00213497
0.00243184
0.00242007
0.0027608
0.00285925
0.00327804
0.00353761
0.00408393
0.00458443
0.00532847
0.00619136
0.00718674
0.00836926
0.00893413
2.83395e-05
0.00221439
0.00208091
0.00228906
0.00172523
0.00199383
0.00163878
0.00194307
0.00166423
0.00195493
0.00172709
0.00200524
0.00182216
0.00208918
0.00195222
0.00221897
0.00214077
0.00242482
0.00242657
0.00275125
0.00286563
0.0032641
0.00354214
0.00406623
0.0045816
0.00529238
0.00613742
0.00702316
0.00804749
0.00849038
3.78228e-05
0.00221502
0.00208353
0.00228855
0.00172805
0.00199227
0.00164169
0.00194101
0.00166771
0.00195233
0.00173118
0.0020019
0.00182696
0.00208475
0.00195785
0.002213
0.00214722
0.00241689
0.00243351
0.00274101
0.00287204
0.00325184
0.00354389
0.00405128
0.00456086
0.0052902
0.00601622
0.00692349
0.00740616
0.00800061
4.80355e-05
0.00221544
0.00208643
0.00228774
0.00173123
0.00199027
0.00164495
0.00193845
0.00167164
0.00194918
0.00173585
0.00199789
0.00183246
0.00207949
0.00196429
0.00220602
0.00215448
0.00240776
0.00244105
0.00272875
0.00287896
0.00323648
0.00354604
0.00403051
0.0045516
0.00524702
0.0059449
0.00679319
0.00708764
0.00745532
5.88499e-05
0.00221568
0.00208966
0.00228671
0.00173487
0.00198785
0.00164863
0.00193537
0.00167613
0.00194542
0.00174119
0.00199316
0.00183871
0.00207337
0.00197149
0.00219808
0.00216235
0.0023977
0.00244885
0.00271611
0.00288516
0.00322071
0.00354696
0.00400663
0.00454058
0.00517683
0.00591309
0.00662782
0.00717112
0.00683431
7.02336e-05
0.00221577
0.00209325
0.00228547
0.00173905
0.00198499
0.0016528
0.00193171
0.00168123
0.00194097
0.00174726
0.00198762
0.00184577
0.00206631
0.00197947
0.00218916
0.00217072
0.00238671
0.0024567
0.00270315
0.00288993
0.00320527
0.00354478
0.00398252
0.00452019
0.00512152
0.00584536
0.00645464
0.00701248
0.0060947
8.22177e-05
0.00221565
0.00209725
0.00228401
0.00174386
0.00198164
0.00165753
0.00192739
0.00168702
0.00193576
0.00175412
0.00198122
0.00185362
0.00205836
0.00198808
0.00217942
0.00217935
0.00237494
0.00246408
0.00269019
0.00289268
0.00319034
0.0035391
0.00396133
0.00448751
0.00507748
0.00573592
0.00627281
0.00655233
0.00567947
9.4877e-05
0.00221523
0.00210167
0.0022823
0.0017494
0.00197776
0.00166288
0.00192235
0.00169355
0.00192974
0.00176178
0.00197396
0.0018622
0.00204962
0.00199712
0.00216918
0.00218786
0.00236369
0.00247008
0.00267811
0.00289239
0.00317631
0.00352419
0.00394662
0.00444387
0.00502816
0.00561471
0.0060837
0.00586725
0.0050931
0.00010832
0.00221437
0.00210656
0.0022803
0.00175576
0.00197327
0.00166891
0.00191649
0.00170087
0.00192284
0.00177027
0.00196581
0.00187148
0.00204009
0.00200649
0.0021584
0.00219616
0.00235251
0.00247468
0.0026664
0.00289034
0.00316119
0.00351218
0.00391021
0.00440791
0.00494201
0.0055003
0.00591394
0.00594447
0.00469033
0.000122684
0.00221291
0.00211194
0.00227797
0.00176305
0.00196811
0.00167568
0.00190973
0.00170901
0.00191501
0.00177956
0.00195679
0.0018813
0.00202998
0.0020158
0.00214748
0.00220352
0.00234204
0.00247713
0.00265583
0.00288544
0.00314589
0.00349929
0.00387085
0.00436589
0.00484348
0.00537097
0.00570154
0.00577435
0.00395555
0.000138127
0.00221064
0.00211786
0.00227524
0.00177136
0.00196224
0.0016832
0.00190206
0.00171791
0.00190634
0.00178949
0.00194718
0.00189124
0.00202006
0.00202432
0.00213806
0.00220859
0.00233376
0.0024757
0.0026482
0.00287415
0.00313456
0.00346649
0.00384754
0.00429523
0.00476274
0.00519514
0.00543561
0.0052541
0.00370959
0.000154855
0.0022073
0.00212433
0.00227207
0.00178081
0.0019556
0.0016915
0.00189343
0.00172753
0.00189686
0.00179994
0.00193716
0.00190095
0.00201062
0.00203174
0.00213015
0.00221129
0.00232737
0.00247145
0.00264164
0.00286049
0.00312542
0.00342958
0.0038153
0.00421588
0.00467182
0.00501338
0.00512744
0.00439371
0.00320459
0.000173092
0.00220262
0.00213139
0.0022684
0.00179147
0.00194816
0.00170057
0.00188381
0.00173778
0.00188657
0.00181075
0.00192689
0.0019101
0.00200095
0.00203774
0.00212305
0.00221221
0.0023207
0.00246724
0.00263104
0.00284997
0.00309855
0.00340827
0.00375605
0.0041444
0.00453075
0.00485
0.00497043
0.00463755
0.00285946
0.000193025
0.00219631
0.002139
0.00226426
0.00180337
0.00194002
0.00171024
0.0018735
0.0017483
0.0018762
0.00182111
0.0019192
0.00191839
0.00199416
0.0020416
0.0021179
0.00221083
0.00231498
0.00246094
0.00262024
0.00283986
0.00307249
0.00338309
0.00368718
0.00406086
0.00437404
0.00466342
0.00473278
0.00450541
0.00202869
0.000215117
0.00218793
0.00214723
0.00225949
0.00181669
0.00193099
0.00172063
0.00186218
0.00175919
0.00186501
0.00183101
0.00190673
0.00192634
0.00198706
0.00204403
0.0021135
0.00220717
0.00231029
0.00244993
0.00261034
0.00281743
0.00305531
0.00333507
0.00363511
0.00395334
0.00423236
0.00440729
0.00436907
0.00393502
0.00211579
0.000239364
0.00217723
0.00215592
0.00225432
0.00183123
0.00192162
0.00173111
0.00185096
0.0017694
0.00185614
0.00183912
0.00190297
0.00192915
0.00198632
0.00204001
0.00211654
0.00219649
0.00231524
0.00243022
0.00261381
0.00277778
0.00304183
0.0032596
0.00358101
0.00382865
0.0040961
0.00413729
0.00391537
0.0028642
0.00176153
0.000266469
0.00216363
0.00216513
0.00224857
0.0018472
0.00191172
0.00174182
0.00183915
0.00177919
0.00184668
0.00184751
0.00189592
0.00193328
0.00198072
0.0020425
0.00210793
0.00219956
0.00229837
0.00243469
0.00258038
0.0027775
0.00298022
0.00323683
0.00347464
0.00371817
0.00386569
0.00392916
0.00380654
0.00346371
0.00149526
0.000296656
0.0021468
0.00217469
0.00224231
0.00186448
0.00190146
0.00175244
0.00182672
0.00178754
0.00183664
0.00185389
0.00189023
0.00193598
0.00197575
0.0020429
0.00210087
0.00219655
0.00228552
0.00242604
0.00256395
0.00275701
0.00294455
0.00318429
0.00338632
0.00358721
0.0036742
0.00366223
0.00346537
0.0031031
0.00122851
0.000330005
0.00212649
0.00218425
0.00223601
0.00188254
0.00189245
0.00176208
0.00181856
0.00179211
0.00183587
0.00185281
0.00189528
0.00192905
0.00198467
0.00202959
0.00211286
0.00217437
0.00229962
0.00238068
0.00256956
0.00269059
0.00293306
0.00307057
0.00332014
0.00342768
0.00353942
0.00333851
0.00286461
0.00163843
0.0009427
0.000367211
0.00210218
0.00219375
0.00222946
0.00190147
0.00188357
0.00177158
0.00180855
0.00179683
0.00182992
0.00185565
0.00188969
0.00193368
0.00197439
0.00204091
0.00209333
0.00219143
0.00226795
0.00240296
0.00251194
0.00268748
0.00284606
0.00304096
0.00318097
0.00328542
0.00327416
0.00316495
0.00293118
0.0025452
0.000685226
0.000408974
0.00207339
0.00220303
0.00222261
0.00192101
0.00187372
0.00177993
0.0018003
0.00179932
0.00182757
0.00185581
0.00188836
0.00193183
0.0019669
0.00203737
0.00208175
0.00218617
0.00224392
0.00239622
0.00247786
0.002681
0.0027786
0.00298935
0.00304904
0.00313351
0.00301313
0.00284515
0.00255992
0.00229352
0.000500015
0.000454249
0.00204128
0.00221094
0.00221782
0.00193994
0.00187078
0.00178276
0.00179867
0.00179271
0.00183629
0.00184359
0.00190617
0.00191263
0.00199889
0.00200208
0.00211717
0.00213543
0.00228199
0.00232557
0.0025
0.0025785
0.00276329
0.00285829
0.00298155
0.00295483
0.00281535
0.00235855
0.0016288
0.000640258
0.0010097
0.000504325
0.00200412
0.0022182
0.00221209
0.00196213
0.00186575
0.00178967
0.00179102
0.00179519
0.00183077
0.00184754
0.00189858
0.00191581
0.00198403
0.00200256
0.00210112
0.00213193
0.00226015
0.00231078
0.00246771
0.00254449
0.00270766
0.00277638
0.00287303
0.00281978
0.00265273
0.00212682
0.00129379
0.000220121
0.000660808
0.000560618
0.00195955
0.00222296
0.00220415
0.00198103
0.00186381
0.00179461
0.00178415
0.00179833
0.00182338
0.00185587
0.00188712
0.0019294
0.00196618
0.002023
0.00207212
0.00214826
0.00221844
0.00231458
0.00240848
0.00251772
0.00261507
0.0026987
0.00271936
0.00269325
0.00253101
0.00226495
0.00183406
0.00123914
-0.000899926
0.000620022
0.00192413
0.00222027
0.00221178
0.00199627
0.00186661
0.00179571
0.00177963
0.00179754
0.00181898
0.0018582
0.001881
0.00193283
0.00195632
0.00202647
0.00205412
0.00214542
0.00218961
0.00229628
0.00235941
0.00246733
0.00253065
0.00259808
0.00259985
0.00255721
0.0024383
0.00223899
0.00174372
0.000645191
-0.0031032
0.000687355
0.00187026
0.00221951
0.00218445
0.00202464
0.00187192
0.00180211
0.00177647
0.00179705
0.00181726
0.0018539
0.00188206
0.0019236
0.00196001
0.0020111
0.00206227
0.00212312
0.00218816
0.00225751
0.00232992
0.0024012
0.00245603
0.00250353
0.00249075
0.00240742
0.00219596
0.00181881
0.00126662
0.000467315
-0.00214144
0.000752827
0.00183888
0.00219986
0.00221256
0.00201962
0.00189038
0.00179089
0.00179119
0.00177665
0.00183519
0.00182877
0.00190555
0.0018947
0.00198446
0.00197324
0.00207297
0.00207923
0.00217601
0.00219965
0.0022843
0.00231676
0.00237675
0.00239979
0.00239385
0.00225068
0.00201362
0.00130151
0.000102987
-0.00155097
-0.00229068
0.000831946
0.00178866
0.00218638
0.00217239
0.0020605
0.00188963
0.00181326
0.00177565
0.00179384
0.00181443
0.00184858
0.00188166
0.00191867
0.00195842
0.00199981
0.00204248
0.0020865
0.00212883
0.00217383
0.0022122
0.00225101
0.00227192
0.0022756
0.00222426
0.00210223
0.00187442
0.00153093
0.00104564
0.000102447
-0.00314202
0.000903025
0.00176168
0.00215417
0.00219101
0.00205924
0.00190746
0.0018158
0.0017782
0.00178774
0.00180968
0.00184235
0.00187502
0.00191081
0.00194631
0.00198467
0.00202516
0.00206573
0.002107
0.00213803
0.00215625
0.00217358
0.00215814
0.0021318
0.00205608
0.0019575
0.0017871
0.00151288
0.000794448
-0.000896714
-0.00527654
0.000982416
0.00173053
0.00211728
0.00217437
0.00207562
0.00192012
0.00182777
0.00178161
0.00179208
0.00180656
0.00184028
0.00186905
0.00190512
0.00194217
0.00197906
0.00201498
0.00204831
0.00206859
0.00208933
0.00209004
0.00208505
0.00204621
0.00198774
0.00187968
0.00174158
0.00153592
0.00122471
0.000483246
-0.00124954
-0.00568056
0.00107048
0.00171102
0.00207648
0.00214494
0.00208767
0.00192883
0.00184064
0.00178597
0.00179334
0.00180129
0.00183321
0.00185983
0.00189532
0.00192942
0.00196373
0.00199872
0.00202377
0.00203715
0.00204553
0.00202339
0.00199524
0.00193177
0.0018498
0.00169456
0.00145422
0.00108357
0.00062595
6.00072e-05
-0.000854754
-0.00410855
0.00111102
0.00173027
0.00203154
0.00216484
0.00205297
0.00197869
0.00183457
0.00182338
0.00177329
0.00181541
0.00180815
0.00186072
0.00187226
0.00191741
0.00193882
0.00197207
0.00199118
0.00199965
0.00199745
0.00196455
0.00189372
0.00181402
0.00168446
0.00154021
0.00123839
0.000700402
-0.000385704
-0.00188425
-0.00377531
-0.00350363
0.00123685
0.00168344
0.00199861
0.00210144
0.00208234
0.00196322
0.0018749
0.00181722
0.00179413
0.00179633
0.00181458
0.00184244
0.00187201
0.00189844
0.00192744
0.00194195
0.00195971
0.00195158
0.00193749
0.00188427
0.00180704
0.00167282
0.00148843
0.00126734
0.00103825
0.000758426
0.000424074
2.25251e-05
-0.000503145
-0.00340047
0.00125535
0.0017299
0.00195834
0.00211937
0.00204722
0.00200639
0.00186301
0.00184182
0.00177987
0.00180035
0.00179737
0.00183052
0.0018506
0.00187657
0.0019025
0.00191718
0.00192601
0.0019154
0.00187005
0.00182196
0.00172692
0.00161817
0.00145358
0.00125478
0.000857298
0.000115753
-0.00114512
-0.00278064
-0.00470409
-0.00410102
0.00137855
0.00168456
0.00193665
0.00205663
0.00206751
0.0019903
0.00191248
0.00184677
0.00180394
0.00178566
0.00179507
0.00181097
0.00183455
0.00185276
0.00187022
0.00187516
0.00187458
0.00185278
0.00181628
0.00175338
0.00166189
0.00153153
0.00134871
0.00109223
0.000775945
0.000435759
0.000101588
-0.00034618
-0.00157871
-0.00562289
0.0014475
0.00168695
0.00191831
0.00203332
0.00206044
0.00199236
0.0019241
0.00184532
0.00180786
0.0017826
0.00178118
0.00179266
0.00181159
0.00183552
0.00184574
0.00183961
0.00183654
0.00180332
0.00176859
0.00168861
0.00159084
0.00143698
0.00125532
0.00102233
0.000756089
0.000377252
-0.000222971
-0.00136876
-0.00360884
-0.00863645
0.00147386
0.0017303
0.0019036
0.00200547
0.00203458
0.00199846
0.00193401
0.00186754
0.00182737
0.00179959
0.00177665
0.00176784
0.00177907
0.0017859
0.00179755
0.00179849
0.00179182
0.00176131
0.00171345
0.0016285
0.0015134
0.00134748
0.00114156
0.000882192
0.000567199
0.000128599
-0.000562958
-0.00178904
-0.00412708
-0.0091525
0.00161505
0.00169013
0.00188804
0.00197618
0.00201922
0.00197843
0.00193175
0.00186928
0.00182399
0.00179139
0.00176759
0.00176477
0.00176079
0.00175941
0.00177076
0.00175861
0.00175302
0.00170954
0.00165799
0.00156267
0.0014448
0.00126103
0.0010133
0.000650724
0.000196651
-0.000337529
-0.000912598
-0.00169328
-0.00323734
-0.0078708
0.00155426
0.00183036
0.0018638
0.00199013
0.00196178
0.00200552
0.00190155
0.0018977
0.00180937
0.00180639
0.00174541
0.00173659
0.00171846
0.00172079
0.00172854
0.00172517
0.00171782
0.0016775
0.00159422
0.00151105
0.00136422
0.00120022
0.000916847
0.000527964
-0.000199544
-0.00131172
-0.0028485
-0.00470656
-0.00677985
-0.00585398
0.00172352
0.00177261
0.00187123
0.00192934
0.0019561
0.00195996
0.00193412
0.00188443
0.0018461
0.00180634
0.0017495
0.00170111
0.00167889
0.00166875
0.00167319
0.00166631
0.00165351
0.0016094
0.00154246
0.00144227
0.00130489
0.00111055
0.000842234
0.000485937
6.20774e-05
-0.00041503
-0.000998923
-0.00194836
-0.00401736
-0.00925485
0.00173457
0.00179213
0.00189128
0.00193523
0.00195526
0.0019403
0.00191541
0.00187055
0.00182267
0.00177872
0.00173149
0.00170371
0.0016678
0.00163767
0.0016302
0.00160745
0.00159855
0.00154983
0.00149035
0.00138041
0.00124819
0.00105573
0.000824849
0.000507555
9.10599e-05
-0.00058103
-0.00164598
-0.00344995
-0.00651746
-0.0123808
0.00176276
0.0018715
0.00190704
0.00192237
0.00192622
0.00191161
0.00189652
0.00186383
0.00183102
0.00177389
0.00171067
0.00165791
0.00161305
0.00159557
0.00157755
0.00156836
0.00154119
0.00150032
0.00142599
0.00132548
0.00118496
0.00100672
0.000767425
0.000445931
-2.50781e-05
-0.000721338
-0.0017993
-0.00354723
-0.00666187
-0.0126827
0.00185395
0.00188478
0.00190632
0.00190438
0.00189378
0.00188463
0.00186998
0.00184537
0.00181712
0.00177347
0.00170036
0.00162529
0.00157919
0.00155343
0.00154029
0.0015209
0.00149044
0.00143936
0.00136383
0.00125867
0.00111896
0.000935186
0.000689347
0.000348729
-0.000138695
-0.00086047
-0.00198542
-0.00386204
-0.00721434
-0.013555
0.00186973
0.00192029
0.00193849
0.00192488
0.00189535
0.00186624
0.00183651
0.00180622
0.00176733
0.00172188
0.00166607
0.00161226
0.00156603
0.00153194
0.00150312
0.00147395
0.00143421
0.00137716
0.00129638
0.00118747
0.00104333
0.000852665
0.000595014
0.000238492
-0.000271528
-0.00103449
-0.00224285
-0.00425499
-0.00777058
-0.0142598
0.00192726
0.00196531
0.00195908
0.00192429
0.00187804
0.00183369
0.00179504
0.00176137
0.00172687
0.00168935
0.00164403
0.00159498
0.00154681
0.00150385
0.00146364
0.00142348
0.00137479
0.00131087
0.00122411
0.00110948
0.000958267
0.000758323
0.000487695
0.000112137
-0.000429812
-0.00124605
-0.00253083
-0.00463591
-0.00824568
-0.0147842
0.00196943
0.00199728
0.00197681
0.00192639
0.00186505
0.00180904
0.00176326
0.00172716
0.00169299
0.00165613
0.00161317
0.0015661
0.00151739
0.00146962
0.00142167
0.00137159
0.00131373
0.00124173
0.00114773
0.00102543
0.000865388
0.00065396
0.000367672
-3.12869e-05
-0.000607591
-0.00147045
-0.00281127
-0.00497696
-0.00863134
-0.0151873
0.00201135
0.00202765
0.00199901
0.00193357
0.00185564
0.00178615
0.00173111
0.0016891
0.00165257
0.00161687
0.00157665
0.00153193
0.00148326
0.00143209
0.00137745
0.00131852
0.00125117
0.00117001
0.00106738
0.000935921
0.000765245
0.000540393
0.00023634
-0.000186348
-0.000792951
-0.00169179
-0.00307187
-0.00527207
-0.00895404
-0.0155307
0.00205469
0.00206261
0.00201512
0.00193502
0.00184489
0.00176336
0.00169875
0.00165014
0.00161153
0.00157628
0.00153801
0.00149455
0.00144548
0.00139097
0.00133039
0.00126309
0.00118629
0.00109519
0.000982782
0.000840698
0.000657941
0.000418407
9.66167e-05
-0.000347533
-0.000978718
-0.00190422
-0.00330899
-0.00552794
-0.00922099
-0.0158042
0.00209462
0.00209043
0.00203193
0.00193847
0.00183508
0.00174185
0.00166787
0.00161307
0.00157126
0.00153487
0.00149698
0.00145385
0.0014037
0.00134595
0.00127975
0.00120451
0.00111829
0.00101694
0.000893754
0.000740057
0.000544407
0.000290319
-4.78804e-05
-0.00051019
-0.00116073
-0.00210544
-0.00352572
-0.00575662
-0.00945941
-0.0160539
0.00213214
0.00211892
0.00204816
0.00194187
0.00182583
0.00172082
0.00163713
0.00157525
0.00152949
0.00149143
0.00145323
0.00140955
0.00135786
0.00129674
0.00122523
0.00114248
0.00104702
0.000935145
0.000800625
0.000634866
0.00042642
0.000158591
-0.000194115
-0.000671576
-0.00133747
-0.00229564
-0.00372716
-0.005967
-0.00967638
-0.0162789
0.00216716
0.00214684
0.00206395
0.00194536
0.00181721
0.00169987
0.00160577
0.00153633
0.00148628
0.001446
0.00140689
0.00136207
0.00130839
0.00124364
0.00116686
0.00107682
0.000972349
0.000849997
0.000704238
0.00052663
0.000305983
2.55271e-05
-0.000339915
-0.000830056
-0.0015074
-0.00247566
-0.00391617
-0.00616406
-0.00987929
-0.016483
0.00219593
0.00216998
0.00208174
0.0019527
0.00181025
0.00167919
0.00157386
0.00149693
0.00144192
0.00139908
0.00135813
0.00131175
0.00125544
0.00118696
0.00110468
0.00100762
0.000894297
0.000761958
0.000605295
0.000416539
0.000184433
-0.000107344
-0.000483908
-0.000984299
-0.00167041
-0.0026461
-0.00409345
-0.00634799
-0.0100715
-0.016686
0.00222335
0.00219146
0.00209723
0.00195833
0.00180286
0.00165892
0.0015428
0.00145787
0.00139723
0.00135076
0.00130721
0.00125856
0.00119927
0.00112675
0.00103895
0.000934976
0.000813233
0.000671407
0.00050454
0.00030538
6.28434e-05
-0.000239084
-0.000625275
-0.00113375
-0.00182661
-0.00280777
-0.00425952
-0.00651777
-0.0102461
-0.0168691
0.00225218
0.00221523
0.0021081
0.00195748
0.00179254
0.00163888
0.00151312
0.00141947
0.00135242
0.00130115
0.00125438
0.0012027
0.00114018
0.00106326
0.000970068
0.000859272
0.000729663
0.000578883
0.000402658
0.000193891
-5.79973e-05
-0.000368961
-0.000762947
-0.00127797
-0.00197601
-0.00296117
-0.00441527
-0.00667343
-0.0103966
-0.0170098
0.00227624
0.0022336
0.00211913
0.00195885
0.00178323
0.00161904
0.00148332
0.00138097
0.0013069
0.00125041
0.00119969
0.00114455
0.00107832
0.000996937
0.000898307
0.000781037
0.000643987
0.000484999
0.000300169
8.27668e-05
-0.000177505
-0.000495974
-0.000896308
-0.00141652
-0.00211851
-0.00310625
-0.00456134
-0.00681909
-0.0105423
-0.0171607
0.00229605
0.00224908
0.00212995
0.00196159
0.00177475
0.00159888
0.00145271
0.0013417
0.0012606
0.00119862
0.00114339
0.00108436
0.00101405
0.000928124
0.000824108
0.00070071
0.000556712
0.000390261
0.000197643
-2.74373e-05
-0.000294817
-0.000619399
-0.00102488
-0.00154914
-0.00225413
-0.00324371
-0.00469976
-0.00695799
-0.010682
-0.0173016
0.00231547
0.00226525
0.0021379
0.00196031
0.00176396
0.00157799
0.00142191
0.00130211
0.00121383
0.00114599
0.00108595
0.00102256
0.000947954
0.000857322
0.000748088
0.000618831
0.000468464
0.000295225
9.5737e-05
-0.000135991
-0.000409203
-0.000738761
-0.00114828
-0.00167568
-0.00238287
-0.00337393
-0.00483091
-0.00708979
-0.0108139
-0.0174323
0.00233147
0.00227751
0.00214447
0.00195889
0.00175297
0.00155686
0.00139097
0.00126243
0.00116678
0.00109286
0.00102763
0.000959581
0.000880424
0.000785058
0.000670723
0.000535976
0.000379766
0.000200476
-5.0624e-06
-0.000242276
-0.000520266
-0.000853798
-0.00126646
-0.00179615
-0.00250481
-0.00349664
-0.00495399
-0.00721316
-0.0109377
-0.0175558
0.00234427
0.00228701
0.00214953
0.00195699
0.00174178
0.00153547
0.00135978
0.00122266
0.00111961
0.0010394
0.000968689
0.000895742
0.000811867
0.000711787
0.000592522
0.000452671
0.000291162
0.000106546
-0.000104113
-0.000345875
-0.000627766
-0.000964436
-0.00137946
-0.00191066
-0.00261998
-0.00361164
-0.0050682
-0.00732642
-0.0110513
-0.0176739
0.00235626
0.00229599
0.00215198
0.00195155
0.00172793
0.00151286
0.00132844
0.00118302
0.00107256
0.000985868
0.000909533
0.0008315
0.000742874
0.000638104
0.000514145
0.000369532
0.00020328
1.39925e-05
-0.00020088
-0.000446368
-0.000731372
-0.00107048
-0.00148717
-0.0020192
-0.00272846
-0.00371914
-0.00517382
-0.00742938
-0.011151
-0.0177714
0.00236598
0.00230211
0.00215235
0.00194464
0.00171301
0.00148967
0.00129696
0.00114354
0.00102574
0.000932484
0.000850407
0.00076725
0.000673889
0.000564543
0.000436126
0.000287117
0.000116599
-7.65858e-05
-0.000294923
-0.00054342
-0.000830866
-0.00117179
-0.00158955
-0.00212189
-0.00283058
-0.00381978
-0.00527204
-0.00752453
-0.0112434
-0.0178645
0.00237298
0.00230617
0.00215124
0.00193684
0.00169756
0.00146608
0.00126521
0.00110396
0.000979005
0.000879344
0.000791592
0.000703321
0.000605282
0.000491534
0.000358927
0.00020592
3.17109e-05
-0.000164766
-0.000385968
-0.000636873
-0.000926195
-0.00126839
-0.00168678
-0.00221903
-0.00292696
-0.00391479
-0.00536524
-0.00761566
-0.0113323
-0.0179523
0.00237697
0.00230784
0.00214883
0.00192853
0.00168188
0.00144227
0.00123327
0.00106444
0.000932575
0.000826721
0.000733392
0.000640121
0.000537526
0.000419606
0.00028312
0.000126528
-5.08537e-05
-0.000250094
-0.000473663
-0.000726477
-0.00101722
-0.00136028
-0.00177897
-0.00231096
-0.00301813
-0.00400485
-0.00545414
-0.007704
-0.0114221
-0.018046
0.0023786
0.00230744
0.00214474
0.001919
0.00166543
0.00141812
0.00120139
0.0010253
0.00088677
0.00077493
0.00067621
0.000578119
0.000471177
0.000349338
0.000209287
4.95968e-05
-0.000130496
-0.000332061
-0.000557578
-0.000811907
-0.00110371
-0.00144736
-0.00186617
-0.00239786
-0.00310442
-0.00409035
-0.00553892
-0.00778837
-0.0115065
-0.0181309
0.00237939
0.00230591
0.00213884
0.00190748
0.00164756
0.00139347
0.00116974
0.000986803
0.000841922
0.000724327
0.000620453
0.000517763
0.000406734
0.000281282
0.000138107
-2.42856e-05
-0.000206705
-0.000410251
-0.000637375
-0.000892922
-0.00118553
-0.00152957
-0.00194839
-0.00247977
-0.00318576
-0.00417097
-0.00561875
-0.00786741
-0.0115846
-0.0182082
0.00237813
0.00230248
0.00213157
0.00189511
0.00162927
0.00136879
0.00113854
0.000949228
0.000798372
0.000675332
0.000566595
0.000459594
0.000344799
0.000216083
7.01089e-05
-9.46826e-05
-0.000279139
-0.000484379
-0.000712841
-0.000969359
-0.00126256
-0.00160683
-0.00202554
-0.00255651
-0.00326182
-0.00424612
-0.00569277
-0.0079401
-0.011656
-0.0182792
0.00237528
0.00229772
0.0021234
0.0018823
0.00161093
0.00134444
0.00110807
0.000912828
0.000756421
0.000628329
0.000515079
0.000404111
0.000285868
0.000154187
5.67805e-06
-0.000161259
-0.000347504
-0.000554189
-0.000783752
-0.00104102
-0.00133462
-0.00167895
-0.00209739
-0.00262778
-0.00333224
-0.00431542
-0.00576076
-0.00800674
-0.0117216
-0.0183448
0.00237122
0.00229192
0.00211447
0.00186912
0.00159267
0.00132065
0.00107865
0.000877963
0.000716452
0.00058373
0.00046636
0.000351784
0.000230413
9.60508e-05
-5.47376e-05
-0.00022358
-0.000411381
-0.000619282
-0.000849733
-0.00110756
-0.00140139
-0.00174561
-0.00216364
-0.00269333
-0.00339683
-0.00437886
-0.00582296
-0.00806781
-0.011782
-0.0184054
0.00236633
0.00228543
0.0021051
0.00185587
0.00157482
0.00129779
0.0010507
0.000845057
0.000678928
0.000542027
0.000420951
0.000303134
0.000178963
4.22061e-05
-0.000110602
-0.000281115
-0.00047025
-0.000679165
-0.000910318
-0.00116854
-0.00146247
-0.0018065
-0.00222407
-0.00275304
-0.00345561
-0.00443658
-0.00587958
-0.00812345
-0.011837
-0.0184608
0.00236094
0.00227859
0.00209567
0.00184296
0.00155778
0.00127629
0.00102464
0.000814591
0.00064436
0.000503754
0.000379398
0.000258714
0.000132069
-6.79715e-06
-0.000161375
-0.000333336
-0.000523609
-0.000733366
-0.000965078
-0.00122359
-0.00151755
-0.00186138
-0.00227852
-0.00280689
-0.00350869
-0.00448878
-0.00593084
-0.0081738
-0.0118868
-0.0185107
0.00235556
0.00227196
0.00208669
0.00183087
0.00154206
0.00125664
0.00100099
0.000787103
0.000613351
0.000469574
0.000342393
0.000219234
9.04379e-05
-5.027e-05
-0.000206391
-0.00037961
-0.000570861
-0.000781333
-0.00101351
-0.00127225
-0.00156623
-0.00190988
-0.00232669
-0.0028546
-0.00355586
-0.00453536
-0.00597681
-0.00821918
-0.0119316
-0.0185555
0.00235033
0.00226578
0.00207868
0.00182028
0.00152834
0.00123948
0.000980372
0.000763246
0.000586586
0.000440249
0.000310803
0.000185637
5.50702e-05
-8.71719e-05
-0.000244592
-0.000418863
-0.000610929
-0.000821982
-0.00105453
-0.00131344
-0.00160742
-0.00195092
-0.00236747
-0.00289506
-0.00359598
-0.00457517
-0.00601642
-0.0082588
-0.0119716
-0.0185962
0.00234606
0.00226042
0.00207181
0.00181137
0.0015169
0.00122527
0.000963446
0.00074389
0.000565141
0.000416988
0.000285916
0.000159268
2.73507e-05
-0.000116083
-0.000274512
-0.000449585
-0.00064225
-0.00085371
-0.00108649
-0.00134547
-0.00163937
-0.00198269
-0.00239898
-0.00292627
-0.00362692
-0.00460593
-0.00604714
-0.00828966
-0.0120028
-0.0186278
0.00234461
0.00225815
0.00206677
0.00180271
0.00150484
0.00121061
0.000946943
0.000725931
0.000545806
0.000396182
0.00026353
0.000135239
1.70634e-06
-0.000143241
-0.000303007
-0.000479217
-0.000672806
-0.000884994
-0.00111831
-0.00137765
-0.00167172
-0.00201501
-0.00243107
-0.00295793
-0.00365794
-0.00463614
-0.00607647
-0.00831838
-0.0120319
-0.0186603
0.0142815
0.0139842
0.0124966
0.0103262
0.00753189
0.0042432
0.000624837
-0.00296136
-0.00579714
-0.0072387
-0.00730332
-0.00654428
-0.00553523
-0.00460256
-0.00387419
-0.00336905
-0.0030525
-0.00287256
-0.00278047
-0.00273846
-0.00272038
-0.00270979
-0.00269758
-0.00267969
-0.00265532
-0.00262553
-0.00259218
-0.00255731
-0.00252267
-0.00248953
-0.00245867
-0.00243047
-0.00240496
-0.00238201
-0.00236141
-0.00234297
-0.00232651
-0.0023119
-0.00229903
-0.00228782
-0.00227818
-0.00227
-0.00226319
-0.00225763
-0.00225321
-0.00224983
-0.0022474
-0.00224585
-0.00224511
-0.00224516
-0.00224594
-0.00224743
-0.00224961
-0.00225246
-0.00225595
-0.00226008
-0.0022648
-0.0022701
-0.00227596
-0.00228235
-0.00228926
-0.00229666
-0.00230454
-0.00231287
-0.00232163
-0.00233082
-0.00234041
-0.00235039
-0.00236075
-0.00237147
-0.00238254
-0.00239395
-0.00240568
-0.00241774
-0.0024301
-0.00244276
-0.0024557
-0.00246893
-0.00248243
-0.0024962
-0.00251022
-0.0025245
-0.00253902
-0.00255379
-0.00256879
-0.00258402
-0.00259947
-0.00261514
-0.00263101
-0.0026471
-0.00266338
-0.00267986
-0.00269653
-0.00271339
-0.00273044
-0.00274767
-0.00276508
-0.00278267
-0.00280044
-0.00281837
-0.00283646
-0.00285471
-0.00287312
-0.00289169
-0.0029104
-0.00292927
-0.00294828
-0.00296744
-0.00298674
-0.00300618
-0.00302576
-0.00304547
-0.00306532
-0.0030853
-0.00310541
-0.00312565
-0.00314601
-0.00316651
-0.00318711
-0.00320784
-0.00322869
-0.00324965
-0.00327072
-0.00329191
-0.00331321
-0.00333462
-0.00335614
-0.00337777
-0.0033995
-0.00342134
-0.00344328
-0.00346533
-0.00348748
-0.00350973
-0.00353207
-0.00355452
-0.00357704
-0.00359967
-0.00362238
-0.00364518
-0.00366807
-0.00369105
-0.00371411
-0.00373727
-0.00376051
-0.00378384
-0.00380724
-0.00383074
-0.00385431
-0.00387797
-0.00390169
-0.00392551
-0.00394939
-0.00397335
-0.00399738
-0.00402148
-0.00404565
-0.00406991
-0.00409422
-0.00411862
-0.00414308
-0.00416762
-0.00419223
-0.00421691
-0.00424165
-0.00426647
-0.00429135
-0.0043163
-0.00434131
-0.0043664
-0.00439154
-0.00441674
-0.004442
-0.00446733
-0.0044927
-0.00451815
-0.00454364
-0.00456921
-0.00459481
-0.0046205
-0.00464622
-0.00467201
-0.00469786
-0.00472377
-0.00474973
-0.00477576