/*--------------------------------*- C++ -*----------------------------------*\
| =========                 |                                                 |
| \\      /  F ield         | OpenFOAM: The Open Source CFD Toolbox           |
|  \\    /   O peration     | Version:  v2006                                 |
|   \\  /    A nd           | Website:  www.openfoam.com                      |
|    \\/     M anipulation  |                                                 |
\*---------------------------------------------------------------------------*/
FoamFile
{
    version     2.0;
    format      ascii;
    class       surfaceScalarField;
    location    "2.2";
    object      phi;
}
// * * * * * * * * * * * * * * * * * * * * * * * * * * * * * * * * * * * * * //

dimensions      [0 3 -1 0 0 0 0];
oriented        oriented;


internalField   nonuniform List<scalar> 
52390
(
1.17004e-06
-3.18923e-07
1.17007e-06
2.79832e-07
1.17314e-06
-2.57233e-07
1.17326e-06
2.18269e-07
1.17678e-06
-2.07344e-07
1.17691e-06
1.68427e-07
1.18033e-06
-1.67687e-07
1.18021e-06
1.28774e-07
1.18342e-06
-1.3572e-07
1.18309e-06
9.83898e-08
1.1861e-06
-1.09812e-07
1.18556e-06
7.49621e-08
1.1884e-06
-8.90046e-08
1.18763e-06
5.65055e-08
1.19034e-06
-7.23559e-08
1.18931e-06
4.19765e-08
1.19192e-06
-5.8921e-08
1.19058e-06
3.07444e-08
1.19315e-06
-4.79198e-08
1.19139e-06
2.22284e-08
1.19399e-06
-3.87138e-08
1.19166e-06
1.5872e-08
1.19438e-06
-3.06357e-08
1.19129e-06
1.11678e-08
1.19421e-06
-2.26115e-08
1.19027e-06
7.40278e-09
1.19284e-06
-1.15006e-08
1.18659e-06
4.42633e-09
1.18213e-06
1.86583e-08
2.36651e-08
1.15364e-06
1.2271e-06
-3.21758e-07
1.22767e-06
2.79262e-07
1.23154e-06
-2.61105e-07
1.23222e-06
2.17591e-07
1.23607e-06
-2.112e-07
1.23654e-06
1.67959e-07
1.23993e-06
-1.71082e-07
1.24021e-06
1.285e-07
1.2431e-06
-1.38613e-07
1.24331e-06
9.81813e-08
1.24569e-06
-1.12194e-07
1.24593e-06
7.47225e-08
1.24778e-06
-9.08505e-08
1.24814e-06
5.61416e-08
1.24938e-06
-7.35971e-08
1.24998e-06
4.13762e-08
1.2505e-06
-5.94387e-08
1.25149e-06
2.97598e-08
1.2511e-06
-4.75357e-08
1.25266e-06
2.0668e-08
1.25112e-06
-3.71716e-08
1.25349e-06
1.35054e-08
1.25045e-06
-2.76005e-08
1.25384e-06
7.77626e-09
1.24897e-06
-1.77403e-08
1.2534e-06
2.97728e-09
1.24636e-06
-4.46007e-09
1.24967e-06
1.11559e-09
1.23779e-06
3.05399e-08
3.89568e-08
1.22249e-06
1.28548e-06
-3.24459e-07
1.28904e-06
2.7571e-07
1.2918e-06
-2.63872e-07
1.295e-06
2.1439e-07
1.29717e-06
-2.13364e-07
1.30002e-06
1.65106e-07
1.30129e-06
-1.72353e-07
1.30395e-06
1.25844e-07
1.30437e-06
-1.3903e-07
1.30704e-06
9.55041e-08
1.30664e-06
-1.11789e-07
1.30948e-06
7.18844e-08
1.30826e-06
-8.96323e-08
1.31135e-06
5.30462e-08
1.30931e-06
-7.15525e-08
1.31273e-06
3.7959e-08
1.30984e-06
-5.65568e-08
1.3136e-06
2.59995e-08
1.3099e-06
-4.38353e-08
1.31396e-06
1.66166e-08
1.30951e-06
-3.27286e-08
1.31368e-06
9.33364e-09
1.30869e-06
-2.26024e-08
1.3126e-06
3.86703e-09
1.30747e-06
-1.26173e-08
1.3103e-06
1.52827e-10
1.30594e-06
-1.05512e-10
1.30352e-06
3.53918e-09
1.30063e-06
3.34299e-08
6.14559e-08
1.27813e-06
1.34585e-06
-3.26208e-07
1.35198e-06
2.6958e-07
1.35317e-06
-2.65064e-07
1.35868e-06
2.08882e-07
1.35889e-06
-2.13577e-07
1.36386e-06
1.60137e-07
1.36298e-06
-1.71464e-07
1.36756e-06
1.21262e-07
1.36576e-06
-1.37234e-07
1.37016e-06
9.1109e-08
1.36763e-06
-1.09259e-07
1.37192e-06
6.75895e-08
1.3688e-06
-8.65146e-08
1.37301e-06
4.88416e-08
1.36944e-06
-6.79856e-08
1.37352e-06
3.38836e-08
1.36964e-06
-5.26853e-08
1.37351e-06
2.21361e-08
1.36949e-06
-3.98136e-08
1.37301e-06
1.30921e-08
1.36899e-06
-2.87116e-08
1.372e-06
6.32811e-09
1.36817e-06
-1.877e-08
1.37033e-06
1.70039e-09
1.36707e-06
-9.35823e-09
1.36751e-06
-2.8149e-10
1.36577e-06
1.6281e-09
1.36055e-06
8.76132e-09
1.36005e-06
3.39275e-08
8.46614e-08
1.33685e-06
1.40861e-06
-3.2646e-07
1.41611e-06
2.62071e-07
1.41568e-06
-2.64632e-07
1.42242e-06
2.02141e-07
1.42105e-06
-2.12204e-07
1.42705e-06
1.54138e-07
1.42473e-06
-1.69148e-07
1.43006e-06
1.15939e-07
1.42711e-06
-1.34292e-07
1.43193e-06
8.62925e-08
1.42862e-06
-1.05951e-07
1.433e-06
6.32133e-08
1.42952e-06
-8.30324e-08
1.43347e-06
4.48894e-08
1.42995e-06
-6.44681e-08
1.43348e-06
3.03504e-08
1.43003e-06
-4.92278e-08
1.43314e-06
1.90234e-08
1.4298e-06
-3.64719e-08
1.43247e-06
1.04198e-08
1.42927e-06
-2.55097e-08
1.43143e-06
4.16946e-09
1.42843e-06
-1.57719e-08
1.42981e-06
3.23213e-10
1.42733e-06
-6.88044e-09
1.42708e-06
-3.22859e-11
1.42553e-06
3.17631e-09
1.42109e-06
1.31969e-08
1.4182e-06
3.68202e-08
1.106e-07
1.39226e-06
1.47434e-06
-3.25121e-07
1.48191e-06
2.54495e-07
1.48018e-06
-2.62904e-07
1.48695e-06
1.95379e-07
1.48464e-06
-2.09896e-07
1.49057e-06
1.48209e-07
1.48768e-06
-1.66257e-07
1.49277e-06
1.10844e-07
1.48961e-06
-1.31124e-07
1.49405e-06
8.18475e-08
1.49082e-06
-1.02722e-07
1.49473e-06
5.9307e-08
1.49154e-06
-7.98491e-08
1.49499e-06
4.14422e-08
1.49189e-06
-6.13696e-08
1.49496e-06
2.72872e-08
1.49194e-06
-4.62124e-08
1.49467e-06
1.62916e-08
1.49172e-06
-3.35229e-08
1.49413e-06
8.01831e-09
1.49124e-06
-2.26197e-08
1.49321e-06
2.19334e-09
1.49045e-06
-1.30071e-08
1.49172e-06
-9.53164e-10
1.4892e-06
-4.35433e-09
1.48942e-06
-2.54147e-10
1.4865e-06
6.09698e-09
1.48429e-06
1.54015e-08
1.48319e-06
3.79224e-08
6.42164e-08
1.52958e-06
1.54354e-06
-3.22446e-07
1.55034e-06
2.47697e-07
1.54774e-06
-2.60302e-07
1.55378e-06
1.89331e-07
1.55104e-06
-2.0715e-07
1.55635e-06
1.429e-07
1.55334e-06
-1.63252e-07
1.55788e-06
1.06307e-07
1.55481e-06
-1.28051e-07
1.55878e-06
7.78716e-08
1.55575e-06
-9.96922e-08
1.55931e-06
5.57528e-08
1.55634e-06
-7.68829e-08
1.55957e-06
3.8216e-08
1.55664e-06
-5.84457e-08
1.55961e-06
2.43214e-08
1.5567e-06
-4.33072e-08
1.55943e-06
1.35674e-08
1.55654e-06
-3.06356e-08
1.55897e-06
5.59187e-09
1.55614e-06
-1.97896e-08
1.55809e-06
2.38061e-10
1.55545e-06
-1.0362e-08
1.55655e-06
-2.05504e-09
1.55444e-06
-2.24307e-09
1.55372e-06
4.59722e-10
1.55258e-06
7.23726e-09
1.54768e-06
2.03101e-08
1.5434e-06
4.21938e-08
9.51306e-08
1.51249e-06
1.61648e-06
-3.18802e-07
1.62232e-06
2.41865e-07
1.61912e-06
-2.57107e-07
1.62434e-06
1.84116e-07
1.62133e-06
-2.04142e-07
1.62603e-06
1.38197e-07
1.62295e-06
-1.60169e-07
1.62707e-06
1.02189e-07
1.62398e-06
-1.24962e-07
1.62771e-06
7.41369e-08
1.62467e-06
-9.66455e-08
1.62813e-06
5.22834e-08
1.62512e-06
-7.38658e-08
1.62837e-06
3.49589e-08
1.62537e-06
-5.54374e-08
1.62843e-06
2.12617e-08
1.62543e-06
-4.03091e-08
1.62825e-06
1.07467e-08
1.6253e-06
-2.7689e-08
1.62776e-06
3.13023e-09
1.62497e-06
-1.69929e-08
1.62683e-06
-1.6204e-09
1.62434e-06
-7.87459e-09
1.62516e-06
-2.87847e-09
1.62337e-06
-4.5438e-10
1.62201e-06
1.81899e-09
1.62157e-06
7.68421e-09
1.61646e-06
2.54211e-08
1.61168e-06
4.69695e-08
1.31717e-07
1.57509e-06
1.69325e-06
-3.14482e-07
1.6984e-06
2.36723e-07
1.69471e-06
-2.53418e-07
1.69937e-06
1.79458e-07
1.69605e-06
-2.00828e-07
1.70044e-06
1.33812e-07
1.69713e-06
-1.56863e-07
1.7011e-06
9.82148e-08
1.6978e-06
-1.21655e-07
1.70153e-06
7.04054e-08
1.69825e-06
-9.33679e-08
1.70181e-06
4.87203e-08
1.69856e-06
-7.06142e-08
1.70196e-06
3.15615e-08
1.69874e-06
-5.22138e-08
1.70193e-06
1.80668e-08
1.69877e-06
-3.7146e-08
1.70167e-06
7.84688e-09
1.69864e-06
-2.46621e-08
1.70108e-06
6.87502e-10
1.69831e-06
-1.42158e-08
1.70006e-06
-3.37052e-09
1.69759e-06
-5.40787e-09
1.69856e-06
-3.84604e-09
1.69572e-06
2.38048e-09
1.69644e-06
1.09917e-09
1.69127e-06
1.28545e-08
1.69577e-06
2.0928e-08
1.69682e-06
4.5911e-08
8.22723e-08
1.74627e-06
1.77389e-06
-3.09647e-07
1.77878e-06
2.31835e-07
1.77458e-06
-2.49219e-07
1.77905e-06
1.74981e-07
1.77533e-06
-1.97105e-07
1.77971e-06
1.29432e-07
1.77604e-06
-1.53195e-07
1.78011e-06
9.41459e-08
1.77645e-06
-1.17991e-07
1.78034e-06
6.65162e-08
1.77671e-06
-8.97447e-08
1.78046e-06
4.4971e-08
1.7769e-06
-6.70511e-08
1.78047e-06
2.79901e-08
1.777e-06
-4.87406e-08
1.78031e-06
1.47542e-08
1.77699e-06
-3.38272e-08
1.7799e-06
4.93314e-09
1.77686e-06
-2.16177e-08
1.77915e-06
-1.60749e-09
1.77653e-06
-1.15928e-08
1.77797e-06
-4.80571e-09
1.77579e-06
-3.23183e-09
1.77629e-06
-4.34566e-09
1.7737e-06
4.97087e-09
1.77427e-06
5.32222e-10
1.76815e-06
1.89675e-08
1.77455e-06
1.45325e-08
1.77618e-06
4.42787e-08
2.64937e-08
1.83196e-06
1.85846e-06
-3.0436e-07
1.86348e-06
2.26818e-07
1.85872e-06
-2.44464e-07
1.86332e-06
1.70379e-07
1.85911e-06
-1.92892e-07
1.86372e-06
1.24826e-07
1.85961e-06
-1.49084e-07
1.86393e-06
8.98204e-08
1.85985e-06
-1.13904e-07
1.86399e-06
6.23676e-08
1.85999e-06
-8.57356e-08
1.86397e-06
4.09847e-08
1.86009e-06
-6.31653e-08
1.86384e-06
2.42392e-08
1.86014e-06
-4.50399e-08
1.86353e-06
1.13611e-08
1.86011e-06
-3.04108e-08
1.86296e-06
2.08326e-09
1.85999e-06
-1.86467e-08
1.86203e-06
-3.64715e-09
1.85968e-06
-9.24296e-09
1.86065e-06
-5.77244e-09
1.85897e-06
-1.55412e-09
1.85857e-06
-3.94882e-09
1.85738e-06
6.15922e-09
1.85528e-06
2.63595e-09
1.85359e-06
2.06593e-08
1.84857e-06
1.95518e-08
1.83878e-06
5.40657e-08
6.23861e-08
1.80289e-06
1.94712e-06
-2.98637e-07
1.95252e-06
2.21412e-07
1.94716e-06
-2.39101e-07
1.95209e-06
1.65448e-07
1.94733e-06
-1.88134e-07
1.95232e-06
1.1984e-07
1.94772e-06
-1.44488e-07
1.95241e-06
8.51313e-08
1.94788e-06
-1.09369e-07
1.95235e-06
5.7894e-08
1.94795e-06
-8.1337e-08
1.9522e-06
3.67341e-08
1.94802e-06
-5.89795e-08
1.95194e-06
2.0321e-08
1.94806e-06
-4.11669e-08
1.95148e-06
7.94106e-09
1.94806e-06
-2.69884e-08
1.95075e-06
-6.08049e-10
1.94798e-06
-1.58692e-08
1.94965e-06
-5.32441e-09
1.94768e-06
-7.2747e-09
1.9481e-06
-6.18453e-09
1.94698e-06
-4.40462e-10
1.94577e-06
-2.74045e-09
1.94542e-06
6.51676e-09
1.9418e-06
6.25561e-09
1.94276e-06
1.96987e-08
1.9316e-06
3.0713e-08
1.92697e-06
5.86937e-08
9.36213e-08
1.89573e-06
2.04003e-06
-2.92475e-07
2.04599e-06
2.15449e-07
2.03997e-06
-2.33082e-07
2.04536e-06
1.60056e-07
2.04002e-06
-1.82789e-07
2.04548e-06
1.14373e-07
2.04038e-06
-1.39381e-07
2.0455e-06
8.00114e-08
2.04051e-06
-1.0438e-07
2.04534e-06
5.30606e-08
2.04057e-06
-7.65667e-08
2.04509e-06
3.22194e-08
2.04065e-06
-5.45423e-08
2.04469e-06
1.62762e-08
2.04073e-06
-3.72069e-08
2.0441e-06
4.57856e-09
2.04079e-06
-2.36877e-08
2.0432e-06
-3.01365e-09
2.04077e-06
-1.34347e-08
2.04196e-06
-6.51913e-09
2.04049e-06
-5.80082e-09
2.04029e-06
-5.98958e-09
2.03964e-06
2.12294e-10
2.0381e-06
-1.2024e-09
2.03735e-06
7.26629e-09
2.03418e-06
9.43177e-09
2.03308e-06
2.07954e-08
2.02603e-06
3.77611e-08
2.01453e-06
7.01918e-08
1.2688e-07
1.98127e-06
2.13739e-06
-2.85864e-07
2.14402e-06
2.0882e-07
2.13729e-06
-2.26358e-07
2.14323e-06
1.54117e-07
2.13726e-06
-1.7682e-07
2.14327e-06
1.08361e-07
2.13764e-06
-1.33743e-07
2.14323e-06
7.44229e-08
2.13779e-06
-9.89401e-08
2.14299e-06
4.78605e-08
2.13788e-06
-7.14582e-08
2.14263e-06
2.74688e-08
2.13801e-06
-4.9921e-08
2.14211e-06
1.21718e-08
2.13817e-06
-3.3263e-08
2.14137e-06
1.37472e-09
2.13831e-06
-2.06296e-08
2.14033e-06
-5.03246e-09
2.13834e-06
-1.14452e-08
2.139e-06
-7.17654e-09
2.138e-06
-4.80152e-09
2.13748e-06
-5.46718e-09
2.13659e-06
1.09878e-09
2.13575e-06
-3.61163e-10
2.13352e-06
9.49997e-09
2.13166e-06
1.12929e-08
2.12602e-06
2.64272e-08
2.132e-06
3.17878e-08
2.15564e-06
4.65535e-08
5.19902e-08
2.23053e-06
2.23941e-06
-2.78787e-07
2.24679e-06
2.01446e-07
2.23931e-06
-2.18878e-07
2.24586e-06
1.47568e-07
2.23923e-06
-1.70192e-07
2.24582e-06
1.01765e-07
2.23965e-06
-1.27565e-07
2.24572e-06
6.83535e-08
2.23985e-06
-9.307e-08
2.24539e-06
4.23168e-08
2.24e-06
-6.60677e-08
2.24492e-06
2.25468e-08
2.24021e-06
-4.52148e-08
2.24427e-06
8.11845e-09
2.24049e-06
-2.94808e-08
2.24337e-06
-1.51323e-09
2.24074e-06
-1.79926e-08
2.2422e-06
-6.49892e-09
2.24083e-06
-1.00672e-08
2.24079e-06
-7.14346e-09
2.24046e-06
-4.46918e-09
2.23911e-06
-4.12202e-09
2.23923e-06
9.84146e-10
2.23687e-06
1.99422e-09
2.23627e-06
1.01078e-08
2.23285e-06
1.47053e-08
2.23044e-06
2.88373e-08
2.2234e-06
3.88267e-08
2.20737e-06
6.25919e-08
8.28448e-08
2.17651e-06
2.34632e-06
-2.71227e-07
2.3545e-06
1.93266e-07
2.34621e-06
-2.10594e-07
2.35342e-06
1.40363e-07
2.3461e-06
-1.62878e-07
2.35331e-06
9.45604e-08
2.34659e-06
-1.20846e-07
2.35313e-06
6.18111e-08
2.34686e-06
-8.68031e-08
2.3527e-06
3.64761e-08
2.34711e-06
-6.047e-08
2.35211e-06
1.75434e-08
2.34744e-06
-4.05418e-08
2.35131e-06
4.24796e-09
2.34784e-06
-2.60161e-08
2.35026e-06
-3.92644e-09
2.3482e-06
-1.59345e-08
2.34899e-06
-7.29146e-09
2.34831e-06
-9.38317e-09
2.34755e-06
-6.38703e-09
2.34791e-06
-4.82498e-09
2.34559e-06
-1.81143e-09
2.347e-06
-4.20111e-10
2.34274e-06
6.25074e-09
2.34444e-06
8.4084e-09
2.33856e-06
2.05907e-08
2.33943e-06
2.79601e-08
2.32462e-06
5.36425e-08
2.31507e-06
7.21377e-08
1.07088e-07
2.29083e-06
2.45834e-06
-2.6317e-07
2.46736e-06
1.8424e-07
2.45824e-06
-2.01472e-07
2.46613e-06
1.32478e-07
2.45811e-06
-1.54864e-07
2.46592e-06
8.67517e-08
2.45869e-06
-1.13609e-07
2.46566e-06
5.48348e-08
2.45906e-06
-8.02034e-08
2.46512e-06
3.04223e-08
2.45942e-06
-5.47743e-08
2.46438e-06
1.25829e-08
2.45988e-06
-3.6041e-08
2.46343e-06
6.96348e-10
2.46041e-06
-2.29922e-08
2.46226e-06
-5.7823e-09
2.46081e-06
-1.44825e-08
2.46101e-06
-7.48905e-09
2.46076e-06
-9.138e-09
2.45978e-06
-5.40705e-09
2.45996e-06
-4.99685e-09
2.4584e-06
-2.60185e-10
2.45818e-06
-1.951e-10
2.45599e-06
8.43597e-09
2.45452e-06
9.8864e-09
2.45136e-06
2.37475e-08
2.44882e-06
3.05027e-08
2.44068e-06
6.17792e-08
2.42251e-06
9.03087e-08
1.41287e-07
2.38831e-06
2.57573e-06
-2.5461e-07
2.58563e-06
1.7434e-07
2.57565e-06
-1.91488e-07
2.58422e-06
1.23907e-07
2.57552e-06
-1.4616e-07
2.5839e-06
7.83652e-08
2.57619e-06
-1.05901e-07
2.58354e-06
4.74912e-08
2.5767e-06
-7.3364e-08
2.58285e-06
2.42714e-08
2.5772e-06
-4.91201e-08
2.58196e-06
7.81649e-09
2.57779e-06
-3.18678e-08
2.58088e-06
-2.39331e-09
2.57841e-06
-2.05237e-08
2.57966e-06
-7.02816e-09
2.57878e-06
-1.36082e-08
2.57852e-06
-7.22569e-09
2.57847e-06
-9.09059e-09
2.57765e-06
-4.591e-09
2.57695e-06
-4.28976e-09
2.57715e-06
-4.58259e-10
2.57419e-06
2.76223e-09
2.57529e-06
7.33598e-09
2.56984e-06
1.53382e-08
2.56909e-06
2.44911e-08
2.5612e-06
3.83912e-08
2.57821e-06
4.47734e-08
2.614e-06
5.45202e-08
5.44573e-08
2.70083e-06
2.69876e-06
-2.45543e-07
2.70955e-06
1.63549e-07
2.6987e-06
-1.80635e-07
2.70795e-06
1.14658e-07
2.69858e-06
-1.3679e-07
2.70749e-06
6.94504e-08
2.69939e-06
-9.77964e-08
2.707e-06
3.98791e-08
2.70005e-06
-6.64165e-08
2.70614e-06
1.8184e-08
2.70071e-06
-4.36929e-08
2.70509e-06
3.44556e-09
2.70146e-06
-2.82414e-08
2.70387e-06
-4.80247e-09
2.70214e-06
-1.87964e-08
2.70264e-06
-7.52683e-09
2.70246e-06
-1.34319e-08
2.70154e-06
-6.29805e-09
2.70209e-06
-9.64911e-09
2.7005e-06
-2.99689e-09
2.70102e-06
-4.80699e-09
2.69911e-06
1.45123e-09
2.69882e-06
3.04555e-09
2.69654e-06
9.62429e-09
2.69462e-06
1.7257e-08
2.69171e-06
2.7396e-08
2.6882e-06
4.19045e-08
2.67914e-06
5.38349e-08
2.65799e-06
7.5672e-08
8.92998e-08
2.62314e-06
2.82769e-06
-2.35964e-07
2.83938e-06
1.51856e-07
2.82766e-06
-1.68916e-07
2.83757e-06
1.04752e-07
2.82757e-06
-1.26789e-07
2.83695e-06
6.00662e-08
2.82853e-06
-8.9374e-08
2.83631e-06
3.20989e-08
2.82938e-06
-5.94845e-08
2.83528e-06
1.22845e-08
2.83017e-06
-3.85802e-08
2.8341e-06
-4.8319e-10
2.83104e-06
-2.51851e-08
2.83278e-06
-6.54747e-09
2.83174e-06
-1.77513e-08
2.8316e-06
-7.38975e-09
2.83195e-06
-1.37767e-08
2.83056e-06
-4.91018e-09
2.83161e-06
-1.07053e-08
2.82913e-06
-5.13144e-10
2.83105e-06
-6.72402e-09
2.8267e-06
5.80217e-09
2.82991e-06
-1.69293e-10
2.8234e-06
1.61407e-08
2.82694e-06
1.37146e-08
2.81926e-06
3.50776e-08
2.82034e-06
4.082e-08
2.79974e-06
7.44314e-08
2.7903e-06
8.5113e-08
1.1405e-07
2.76555e-06
2.96281e-06
-2.25883e-07
2.97539e-06
1.39281e-07
2.96284e-06
-1.5637e-07
2.97334e-06
9.42502e-08
2.96279e-06
-1.16238e-07
2.97253e-06
5.03309e-08
2.96394e-06
-8.07805e-08
2.9717e-06
2.43336e-08
2.96501e-06
-5.27948e-08
2.97043e-06
6.86845e-09
2.96608e-06
-3.42361e-08
2.96898e-06
-3.38346e-09
2.96704e-06
-2.32427e-08
2.96775e-06
-7.25861e-09
2.96755e-06
-1.7553e-08
2.96684e-06
-6.68041e-09
2.9674e-06
-1.43347e-08
2.96616e-06
-3.6644e-09
2.96676e-06
-1.1304e-08
2.96514e-06
1.09716e-09
2.96534e-06
-6.91887e-09
2.96341e-06
7.73473e-09
2.96321e-06
2.56342e-11
2.96e-06
1.93557e-08
2.95835e-06
1.53658e-08
2.95581e-06
3.76088e-08
2.9531e-06
4.35322e-08
2.94209e-06
8.54485e-08
2.91662e-06
1.10581e-07
1.51972e-07
2.8787e-06
3.10445e-06
-2.15325e-07
3.11787e-06
1.25864e-07
3.10456e-06
-1.43062e-07
3.11557e-06
8.32341e-08
3.10457e-06
-1.05233e-07
3.11453e-06
4.0365e-08
3.1059e-06
-7.21462e-08
3.11352e-06
1.67133e-08
3.10718e-06
-4.64507e-08
3.11211e-06
1.93496e-09
3.10827e-06
-3.03967e-08
3.11075e-06
-5.86625e-09
3.10901e-06
-2.15041e-08
3.10995e-06
-8.19156e-09
3.10883e-06
-1.64389e-08
3.10988e-06
-7.72917e-09
3.10767e-06
-1.2122e-08
3.11026e-06
-6.24971e-09
3.10558e-06
-6.63082e-09
3.11065e-06
-3.97449e-09
3.1027e-06
1.03745e-09
3.1104e-06
3.52682e-11
3.09975e-06
1.06747e-08
3.10776e-06
1.13393e-08
3.0955e-06
2.76285e-08
3.09892e-06
3.41953e-08
3.08835e-06
5.40937e-08
3.12119e-06
5.26168e-08
3.16727e-06
6.44923e-08
5.98579e-08
3.25939e-06
3.25291e-06
-2.04325e-07
3.26711e-06
1.11664e-07
3.25315e-06
-1.29102e-07
3.26456e-06
7.18254e-08
3.25324e-06
-9.39159e-08
3.26326e-06
3.03488e-08
3.25479e-06
-6.36769e-08
3.26202e-06
9.48071e-09
3.25633e-06
-4.07606e-08
3.26036e-06
-2.092e-09
3.25764e-06
-2.76828e-08
3.25887e-06
-7.08972e-09
3.25849e-06
-2.11232e-08
3.25791e-06
-7.61812e-09
3.2586e-06
-1.71306e-08
3.25725e-06
-6.36952e-09
3.25844e-06
-1.3317e-08
3.25616e-06
-3.96892e-09
3.25825e-06
-8.71839e-09
3.25433e-06
-5.76184e-11
3.25763e-06
-2.26188e-09
3.25156e-06
6.10916e-09
3.2553e-06
6.92936e-09
3.24812e-06
1.85191e-08
3.25203e-06
2.37226e-08
3.24581e-06
4.04096e-08
3.2473e-06
5.26108e-08
3.22658e-06
7.33323e-08
3.20302e-06
8.80505e-08
1.01694e-07
3.16119e-06
3.40852e-06
-1.92916e-07
3.42343e-06
9.67593e-08
3.40895e-06
-1.14622e-07
3.4206e-06
6.01706e-08
3.40913e-06
-8.24478e-08
3.41899e-06
2.0491e-08
3.41092e-06
-5.56064e-08
3.4175e-06
2.90518e-09
3.4128e-06
-3.60599e-08
3.41553e-06
-4.82327e-09
3.41433e-06
-2.64878e-08
3.41395e-06
-6.70946e-09
3.41512e-06
-2.22897e-08
3.41303e-06
-5.52797e-09
3.41526e-06
-1.93663e-08
3.4122e-06
-3.3053e-09
3.41534e-06
-1.64617e-08
3.41091e-06
4.65364e-10
3.41492e-06
-1.27329e-08
3.40921e-06
5.6612e-09
3.41424e-06
-7.29985e-09
3.4062e-06
1.41512e-08
3.41213e-06
9.9989e-10
3.40294e-06
2.77142e-08
3.40795e-06
1.87057e-08
3.40169e-06
4.66744e-08
3.40648e-06
4.78172e-08
3.3821e-06
9.77131e-08
3.35509e-06
1.15064e-07
1.46182e-07
3.3106e-06
3.57166e-06
-1.81162e-07
3.58714e-06
8.12788e-08
3.57233e-06
-9.981e-08
3.58405e-06
4.84503e-08
3.57258e-06
-7.09834e-08
3.58215e-06
1.09271e-08
3.57447e-06
-4.79278e-08
3.58066e-06
-3.28258e-09
3.57619e-06
-3.15948e-08
3.57913e-06
-7.75818e-09
3.57698e-06
-2.43474e-08
3.57859e-06
-8.31445e-09
3.57655e-06
-2.02518e-08
3.57902e-06
-7.99191e-09
3.57511e-06
-1.54578e-08
3.57994e-06
-8.13719e-09
3.57282e-06
-9.33863e-09
3.58141e-06
-8.1293e-09
3.56976e-06
-1.08504e-09
3.58196e-06
-6.5372e-09
3.56656e-06
8.10428e-09
3.58211e-06
-1.39698e-09
3.56346e-06
1.96497e-08
3.57977e-06
1.14002e-08
3.55949e-06
3.89877e-08
3.5697e-06
3.64654e-08
3.55557e-06
6.19419e-08
3.60404e-06
4.924e-08
3.65613e-06
6.29814e-08
5.82943e-08
3.74402e-06
3.74269e-06
-1.69147e-07
3.75858e-06
6.53877e-08
3.7437e-06
-8.49335e-08
3.75524e-06
3.69184e-08
3.74403e-06
-5.97723e-08
3.75296e-06
1.99631e-09
3.74608e-06
-4.10556e-08
3.7513e-06
-8.49965e-09
3.74798e-06
-2.82743e-08
3.7496e-06
-9.38171e-09
3.74918e-06
-2.39206e-08
3.74837e-06
-7.50303e-09
3.74994e-06
-2.18302e-08
3.74692e-06
-4.96541e-09
3.75083e-06
-1.93727e-08
3.74521e-06
-2.51892e-09
3.75137e-06
-1.54986e-08
3.74336e-06
-1.19713e-10
3.75161e-06
-9.33247e-09
3.74173e-06
3.34758e-09
3.74977e-06
6.60687e-11
3.73912e-06
9.24527e-09
3.74664e-06
1.21356e-08
3.737e-06
2.10423e-08
3.74478e-06
3.11995e-08
3.73796e-06
4.32921e-08
3.73767e-06
6.2226e-08
3.71439e-06
7.25222e-08
3.68397e-06
9.3399e-08
1.07513e-07
3.63475e-06
3.92198e-06
-1.56939e-07
3.93808e-06
4.92851e-08
3.92349e-06
-7.03383e-08
3.9345e-06
2.59059e-08
3.92388e-06
-4.9153e-08
3.93175e-06
-5.86838e-09
3.92597e-06
-3.52788e-08
3.93015e-06
-1.2681e-08
3.92772e-06
-2.58459e-08
3.92869e-06
-1.03539e-08
3.9288e-06
-2.40276e-08
3.92735e-06
-6.05463e-09
3.93013e-06
-2.46044e-08
3.9252e-06
-4.00698e-11
3.93149e-06
-2.56608e-08
3.92282e-06
6.15472e-09
3.93309e-06
-2.57756e-08
3.91978e-06
1.31957e-08
3.93437e-06
-2.39215e-08
3.91631e-06
2.14027e-08
3.93485e-06
-1.84678e-08
3.91301e-06
3.10841e-08
3.93355e-06
-8.40803e-09
3.91132e-06
4.3273e-08
3.93374e-06
8.78238e-09
3.91537e-06
6.16637e-08
3.93625e-06
4.13456e-08
3.8905e-06
1.18273e-07
3.85793e-06
1.25967e-07
1.55288e-07
3.81015e-06
4.10995e-06
-1.44641e-07
4.12604e-06
3.31938e-08
4.11205e-06
-5.63471e-08
4.12237e-06
1.55889e-08
4.11219e-06
-3.89786e-08
4.11956e-06
-1.32288e-08
4.1137e-06
-2.94189e-08
4.11898e-06
-1.79687e-08
4.11388e-06
-2.074e-08
4.11962e-06
-1.60932e-08
4.11257e-06
-1.69807e-08
4.12092e-06
-1.44038e-08
4.11044e-06
-1.41241e-08
4.12256e-06
-1.21625e-08
4.10826e-06
-1.13641e-08
4.1236e-06
-9.17853e-09
4.10625e-06
-8.43022e-09
4.12406e-06
-4.61019e-09
4.10444e-06
-4.30699e-09
4.12349e-06
2.35849e-09
4.10288e-06
2.14371e-09
4.121e-06
1.29562e-08
4.10068e-06
1.19132e-08
4.11663e-06
2.73206e-08
4.09797e-06
2.74438e-08
4.11611e-06
4.35298e-08
4.10756e-06
4.98929e-08
4.15825e-06
6.75792e-08
4.21032e-06
7.38968e-08
8.5205e-08
4.28041e-06
4.30707e-06
-1.32413e-07
4.32278e-06
1.74888e-08
4.3103e-06
-4.38637e-08
4.31898e-06
6.9086e-09
4.31019e-06
-3.01926e-08
4.31559e-06
-1.86236e-08
4.31144e-06
-2.5273e-08
4.31512e-06
-2.16529e-08
4.31148e-06
-1.71013e-08
4.31596e-06
-2.05721e-08
4.31025e-06
-1.12694e-08
4.31718e-06
-2.13361e-08
4.30832e-06
-5.26319e-09
4.31882e-06
-2.26609e-08
4.30583e-06
1.62633e-09
4.32012e-06
-2.34661e-08
4.30359e-06
8.0987e-09
4.32087e-06
-2.1893e-08
4.30138e-06
1.51859e-08
4.3206e-06
-1.68614e-08
4.29917e-06
2.35724e-08
4.31929e-06
-7.16628e-09
4.29672e-06
3.44894e-08
4.31491e-06
9.12622e-09
4.29297e-06
4.93809e-08
4.31215e-06
2.43527e-08
4.31044e-06
5.16059e-08
4.36137e-06
1.66501e-08
4.40968e-06
2.55885e-08
4.26977e-09
4.49061e-06
4.51381e-06
-1.20454e-07
4.52861e-06
2.69635e-09
4.51945e-06
-3.4703e-08
4.52495e-06
1.40341e-09
4.51796e-06
-2.31968e-08
4.52088e-06
-2.15472e-08
4.51887e-06
-2.32642e-08
4.51961e-06
-2.23925e-08
4.51986e-06
-1.73478e-08
4.51924e-06
-1.99581e-08
4.52106e-06
-1.30913e-08
4.5181e-06
-1.83712e-08
4.52194e-06
-9.10025e-09
4.51657e-06
-1.72909e-08
4.52263e-06
-4.43198e-09
4.51515e-06
-1.59923e-08
4.52268e-06
5.66725e-10
4.51385e-06
-1.30576e-08
4.52182e-06
7.21737e-09
4.51192e-06
-6.96619e-09
4.51897e-06
1.65206e-08
4.50814e-06
3.67003e-09
4.51289e-06
2.97398e-08
4.50429e-06
1.7725e-08
4.51203e-06
4.1637e-08
4.50485e-06
3.15385e-08
4.50851e-06
4.79463e-08
4.47998e-06
4.51801e-08
4.44233e-06
6.32373e-08
6.19212e-08
4.38468e-06
4.7304e-06
-1.08737e-07
4.74458e-06
-1.14904e-08
4.73645e-06
-2.65734e-08
4.74159e-06
-3.7324e-09
4.7351e-06
-1.67042e-08
4.73667e-06
-2.31148e-08
4.73563e-06
-2.22301e-08
4.73488e-06
-2.16428e-08
4.73773e-06
-2.01941e-08
4.73378e-06
-1.60068e-08
4.7396e-06
-1.89179e-08
4.73184e-06
-1.06113e-08
4.74111e-06
-1.83672e-08
4.72948e-06
-5.66165e-09
4.74264e-06
-1.759e-08
4.72733e-06
-6.8092e-10
4.74322e-06
-1.53231e-08
4.72566e-06
4.49599e-09
4.74281e-06
-9.92901e-09
4.72421e-06
1.16326e-08
4.74125e-06
-5.20921e-10
4.72272e-06
2.22028e-08
4.73988e-06
1.25792e-08
4.72277e-06
3.48371e-08
4.73662e-06
2.779e-08
4.71438e-06
5.37753e-08
4.71149e-06
5.08371e-08
4.68667e-06
7.0002e-08
4.68021e-06
6.96946e-08
9.43465e-08
4.64778e-06
4.95775e-06
-9.76919e-08
4.96944e-06
-2.31767e-08
4.96704e-06
-2.41733e-08
4.96599e-06
-2.681e-09
4.96606e-06
-1.67731e-08
4.96122e-06
-1.82756e-08
4.96416e-06
-2.51692e-08
4.9605e-06
-1.79876e-08
4.96497e-06
-2.46666e-08
4.96058e-06
-1.1611e-08
4.9656e-06
-2.39382e-08
4.96015e-06
-5.16434e-09
4.9657e-06
-2.3916e-08
4.95944e-06
5.94578e-10
4.96508e-06
-2.323e-08
4.95923e-06
5.16927e-09
4.96428e-06
-2.03728e-08
4.95785e-06
1.09311e-08
4.96146e-06
-1.35365e-08
4.95407e-06
1.90152e-08
4.95603e-06
-2.4801e-09
4.94937e-06
2.88648e-08
4.95075e-06
1.12018e-08
4.94706e-06
3.85209e-08
4.94747e-06
2.73826e-08
4.94928e-06
5.19683e-08
4.94714e-06
5.29721e-08
4.91865e-06
9.84925e-08
4.87516e-06
1.13189e-07
1.30897e-07
4.83861e-06
5.19568e-06
-8.70535e-08
5.20697e-06
-3.4473e-08
5.2026e-06
-1.97945e-08
5.20673e-06
-6.81142e-09
5.19823e-06
-8.27278e-09
5.20487e-06
-2.49187e-08
5.19552e-06
-1.58218e-08
5.2063e-06
-2.8771e-08
5.19381e-06
-1.21756e-08
5.20846e-06
-2.62527e-08
5.19174e-06
-7.21946e-09
5.21014e-06
-2.35686e-08
5.18949e-06
-3.26066e-09
5.21152e-06
-2.14361e-08
5.18778e-06
5.08665e-10
5.21155e-06
-1.86009e-08
5.1871e-06
4.07892e-09
5.21072e-06
-1.26882e-08
5.18678e-06
1.03984e-08
5.20942e-06
-3.6204e-09
5.18677e-06
2.01622e-08
5.20565e-06
9.99149e-09
5.18232e-06
3.45287e-08
5.19291e-06
2.79273e-08
5.17273e-06
4.75676e-08
5.18441e-06
4.02917e-08
5.19027e-06
4.7112e-08
5.26244e-06
2.63177e-08
5.34941e-06
2.62223e-08
2.6978e-08
5.45333e-06
5.44556e-06
-7.74202e-08
5.45217e-06
-4.1083e-08
5.45591e-06
-2.35346e-08
5.45019e-06
-1.0966e-09
5.45554e-06
-1.36257e-08
5.44615e-06
-1.55253e-08
5.45256e-06
-2.22313e-08
5.44584e-06
-2.20471e-08
5.45207e-06
-1.84063e-08
5.44696e-06
-2.11446e-08
5.45183e-06
-1.2091e-08
5.44777e-06
-1.95113e-08
5.45089e-06
-6.37464e-09
5.44656e-06
-1.71044e-08
5.44858e-06
-1.51126e-09
5.44419e-06
-1.42177e-08
5.44464e-06
3.6349e-09
5.4415e-06
-9.54734e-09
5.44262e-06
9.26885e-09
5.43876e-06
2.45907e-10
5.43931e-06
1.96099e-08
5.43522e-06
1.40814e-08
5.43556e-06
3.41898e-08
5.43357e-06
2.99186e-08
5.43479e-06
4.63487e-08
5.43406e-06
4.10229e-08
5.42344e-06
5.77257e-08
5.39716e-06
5.26041e-08
5.35865e-06
6.47326e-08
6.4884e-08
5.32074e-06
5.70692e-06
-6.83786e-08
5.71278e-06
-4.69434e-08
5.71488e-06
-2.56404e-08
5.71524e-06
-1.45651e-09
5.71499e-06
-1.33718e-08
5.71089e-06
-1.14237e-08
5.71108e-06
-2.24211e-08
5.70723e-06
-1.82036e-08
5.71132e-06
-2.24946e-08
5.7077e-06
-1.75253e-08
5.71323e-06
-1.7618e-08
5.70736e-06
-1.36441e-08
5.71356e-06
-1.25715e-08
5.70629e-06
-9.83857e-09
5.7135e-06
-8.71803e-09
5.70471e-06
-5.42806e-09
5.71223e-06
-3.8835e-09
5.70203e-06
6.53971e-10
5.70707e-06
4.22525e-09
5.6978e-06
9.51927e-09
5.70245e-06
1.49531e-08
5.69552e-06
2.10184e-08
5.7006e-06
2.91084e-08
5.69353e-06
3.6987e-08
5.69381e-06
4.60676e-08
5.68134e-06
5.34949e-08
5.67644e-06
6.26228e-08
5.6593e-06
6.97428e-08
5.64437e-06
7.96642e-08
8.77892e-08
5.62147e-06
5.98104e-06
-6.02241e-08
5.98132e-06
-4.72219e-08
5.98879e-06
-3.31137e-08
5.9877e-06
-3.68387e-10
5.99015e-06
-1.58164e-08
5.98175e-06
-3.02987e-09
5.98753e-06
-2.81949e-08
5.979e-06
-9.68024e-09
5.98814e-06
-3.16297e-08
5.9793e-06
-8.68261e-09
5.98847e-06
-2.67965e-08
5.97964e-06
-4.81269e-09
5.98732e-06
-2.02475e-08
5.97883e-06
-1.35005e-09
5.98311e-06
-1.30014e-08
5.97578e-06
1.90561e-09
5.97864e-06
-6.73899e-09
5.97297e-06
6.32104e-09
5.97573e-06
1.46738e-09
5.97063e-06
1.46165e-08
5.97349e-06
1.2093e-08
5.96884e-06
2.56718e-08
5.97239e-06
2.55548e-08
5.96733e-06
4.20431e-08
5.96683e-06
4.6568e-08
5.95493e-06
6.53941e-08
5.94878e-06
6.87745e-08
5.93188e-06
8.66477e-08
5.9192e-06
9.23414e-08
1.0278e-07
5.90421e-06
6.26825e-06
-5.2982e-08
6.26551e-06
-4.4489e-08
6.27627e-06
-4.3872e-08
6.27046e-06
5.44051e-09
6.27874e-06
-2.40907e-08
6.26609e-06
9.61573e-09
6.27583e-06
-3.79369e-08
6.26443e-06
1.72183e-09
6.27606e-06
-4.32537e-08
6.26482e-06
2.55222e-09
6.27601e-06
-3.79905e-08
6.26498e-06
6.2187e-09
6.27514e-06
-3.04061e-08
6.26451e-06
9.27881e-09
6.27353e-06
-2.20152e-08
6.26215e-06
1.328e-08
6.26839e-06
-1.29799e-08
6.25816e-06
1.65551e-08
6.26347e-06
-3.84196e-09
6.25628e-06
2.18096e-08
6.2596e-06
8.76397e-09
6.25317e-06
3.21104e-08
6.25516e-06
2.35607e-08
6.25284e-06
4.43675e-08
6.26046e-06
3.89412e-08
6.25638e-06
6.94776e-08
6.24743e-06
7.77186e-08
6.21272e-06
1.21359e-07
6.16407e-06
1.40999e-07
1.29484e-07
6.13736e-06
6.56774e-06
-4.52555e-08
6.57732e-06
-5.40641e-08
6.56168e-06
-2.82352e-08
6.58071e-06
-1.35878e-08
6.56145e-06
-4.82644e-09
6.5818e-06
-1.07401e-08
6.5599e-06
-1.60395e-08
6.58162e-06
-1.99981e-08
6.55979e-06
-2.14228e-08
6.58172e-06
-1.93725e-08
6.55981e-06
-1.60826e-08
6.58113e-06
-1.50969e-08
6.56006e-06
-9.3361e-09
6.57987e-06
-1.05352e-08
6.56024e-06
-2.38285e-09
6.57817e-06
-4.65422e-09
6.56055e-06
4.64116e-09
6.57431e-06
2.79311e-09
6.55776e-06
1.27136e-08
6.5664e-06
1.31635e-08
6.55424e-06
2.09303e-08
6.56112e-06
2.52277e-08
6.54794e-06
3.67402e-08
6.55021e-06
4.20993e-08
6.54168e-06
4.74694e-08
6.56929e-06
4.1863e-08
6.60365e-06
4.33647e-08
6.68518e-06
3.98231e-08
6.7853e-06
4.0883e-08
5.86802e-08
6.8561e-06
6.88452e-06
-3.99828e-08
6.87808e-06
-4.7626e-08
6.89034e-06
-4.04911e-08
6.88304e-06
-6.29724e-09
6.8938e-06
-1.55796e-08
6.88349e-06
-4.35687e-10
6.88981e-06
-2.23513e-08
6.88176e-06
-1.19523e-08
6.88687e-06
-2.65319e-08
6.88055e-06
-1.30567e-08
6.88591e-06
-2.14433e-08
6.8792e-06
-8.38324e-09
6.88386e-06
-1.40002e-08
6.87584e-06
-2.51015e-09
6.88037e-06
-6.91383e-09
6.87285e-06
2.86712e-09
6.8772e-06
2.86859e-10
6.87066e-06
9.33435e-09
6.87404e-06
9.33389e-09
6.86917e-06
1.80314e-08
6.87175e-06
1.83502e-08
6.87238e-06
2.45968e-08
6.88621e-06
2.29117e-08
6.89905e-06
2.9267e-08
6.91011e-06
3.64087e-08
6.89661e-06
5.53579e-08
6.86923e-06
7.07458e-08
6.81662e-06
9.24286e-08
6.75046e-06
1.07049e-07
8.19071e-08
6.72723e-06
7.21244e-06
-3.32881e-08
7.22457e-06
-5.97554e-08
7.20229e-06
-1.82124e-08
7.22645e-06
-3.04546e-08
7.20287e-06
8.00207e-09
7.22823e-06
-2.58008e-08
7.20236e-06
3.51792e-09
7.22737e-06
-3.69536e-08
7.20361e-06
-2.77478e-09
7.22569e-06
-3.51431e-08
7.2049e-06
-6.53093e-10
7.224e-06
-2.74805e-08
7.20627e-06
3.73355e-09
7.22156e-06
-1.78033e-08
7.20564e-06
9.00957e-09
7.21648e-06
-7.97892e-09
7.20137e-06
1.53971e-08
7.20891e-06
1.79628e-09
7.19778e-06
2.04629e-08
7.20481e-06
1.10057e-08
7.19685e-06
2.63053e-08
7.20179e-06
1.9664e-08
7.18959e-06
3.51057e-08
7.19002e-06
2.8843e-08
7.19021e-06
3.62118e-08
7.22172e-06
2.38462e-08
7.26879e-06
2.36774e-08
7.3524e-06
8.82537e-09
7.45589e-06
3.54994e-09
1.58825e-08