/*--------------------------------*- C++ -*----------------------------------*\
| =========                 |                                                 |
| \\      /  F ield         | OpenFOAM: The Open Source CFD Toolbox           |
|  \\    /   O peration     | Version:  v2006                                 |
|   \\  /    A nd           | Website:  www.openfoam.com                      |
|    \\/     M anipulation  |                                                 |
\*---------------------------------------------------------------------------*/
FoamFile
{
    version     2.0;
    format      ascii;
    class       volVectorField;
    location    "2.2";
    object      U;
}
// * * * * * * * * * * * * * * * * * * * * * * * * * * * * * * * * * * * * * //

dimensions      [0 1 -1 0 0 0 0];


internalField   nonuniform List<vector> 
26400
(
(0.909052 -0.00477291 0)
(1.09186 0.00443831 0)
(0.913088 -0.00428361 0)
(1.09152 0.00387132 0)
(0.919441 -0.00384739 0)
(1.09213 0.00334059 0)
(0.925096 -0.00347055 0)
(1.09266 0.00285319 0)
(0.930049 -0.00313412 0)
(1.09315 0.00243437 0)
(0.934338 -0.00282886 0)
(1.0936 0.00207017 0)
(0.937943 -0.00255701 0)
(1.09409 0.00173996 0)
(0.94083 -0.00231741 0)
(1.0947 0.00143781 0)
(0.942923 -0.00210256 0)
(1.09548 0.0011653 0)
(0.944111 -0.00190275 0)
(1.09655 0.000922034 0)
(0.94423 -0.00170625 0)
(1.098 0.000703665 0)
(0.943045 -0.00149281 0)
(1.09992 0.00050168 0)
(0.940223 -0.00121149 0)
(1.10228 0.000292522 0)
(0.935254 -0.00067157 0)
(1.10458 2.5574e-05 0)
(0.926799 0.00111088 0)
(1.10573 0.000366911 0)
(0.915942 -0.00481342 0)
(1.08604 0.00444033 0)
(0.922491 -0.00434887 0)
(1.08565 0.00386987 0)
(0.930494 -0.00392422 0)
(1.0856 0.00333902 0)
(0.937508 -0.00355094 0)
(1.08509 0.0028551 0)
(0.943798 -0.00321549 0)
(1.08418 0.00244 0)
(0.949568 -0.00291056 0)
(1.08287 0.00207971 0)
(0.954941 -0.0026386 0)
(1.08113 0.00175392 0)
(0.960042 -0.00239781 0)
(1.07891 0.00145737 0)
(0.965007 -0.00218016 0)
(1.07605 0.00119281 0)
(0.970017 -0.00197572 0)
(1.07233 0.000962019 0)
(0.97531 -0.0017718 0)
(1.06741 0.000764208 0)
(0.981177 -0.00154241 0)
(1.06079 0.000590387 0)
(0.987933 -0.0012177 0)
(1.05177 0.000394747 0)
(0.995768 -0.000547598 0)
(1.03908 0.000214991 0)
(1.00436 0.00202067 0)
(1.02009 0.00151525 0)
(0.928122 -0.00485986 0)
(1.07425 0.00441687 0)
(0.937567 -0.00441081 0)
(1.07358 0.00384317 0)
(0.947702 -0.00398877 0)
(1.07247 0.00331272 0)
(0.956463 -0.00360832 0)
(1.07042 0.00282936 0)
(0.964336 -0.00326219 0)
(1.06764 0.00241088 0)
(0.971638 -0.00294308 0)
(1.06421 0.00204279 0)
(0.978541 -0.00265181 0)
(1.06017 0.00170353 0)
(0.985159 -0.00238378 0)
(1.05555 0.0013855 0)
(0.991544 -0.00212701 0)
(1.05038 0.00108765 0)
(0.997691 -0.00186632 0)
(1.04471 0.000806765 0)
(1.0035 -0.00158286 0)
(1.03866 0.000538835 0)
(1.00874 -0.00125037 0)
(1.03239 0.000283613 0)
(1.01302 -0.000820345 0)
(1.02613 4.75206e-05 0)
(1.01565 -0.000131107 0)
(1.01991 5.83005e-05 0)
(1.01544 0.0021671 0)
(1.01418 0.00376232 0)
(0.943434 -0.00489295 0)
(1.05836 0.00434198 0)
(0.954372 -0.00444498 0)
(1.05721 0.00376683 0)
(0.965637 -0.00401043 0)
(1.05521 0.00323534 0)
(0.97515 -0.00360939 0)
(1.05209 0.00274783 0)
(0.983415 -0.00324063 0)
(1.04831 0.00231936 0)
(0.990738 -0.00289646 0)
(1.04411 0.00193653 0)
(0.997232 -0.00257715 0)
(1.0397 0.00157874 0)
(1.00292 -0.00227803 0)
(1.03529 0.0012398 0)
(1.00778 -0.00198813 0)
(1.03104 0.000921212 0)
(1.01172 -0.00169437 0)
(1.02712 0.000623972 0)
(1.01464 -0.0013806 0)
(1.02365 0.000351113 0)
(1.01642 -0.00102659 0)
(1.02065 0.000114897 0)
(1.01696 -0.000579289 0)
(1.01797 -4.63156e-05 0)
(1.01605 0.000157073 0)
(1.01519 0.000240439 0)
(1.01339 0.00254417 0)
(1.01233 0.00593955 0)
(0.959208 -0.00490476 0)
(1.04141 0.00422761 0)
(0.969551 -0.00444928 0)
(1.03993 0.00365161 0)
(0.980191 -0.00399561 0)
(1.03769 0.00311937 0)
(0.988834 -0.0035702 0)
(1.03457 0.00262955 0)
(0.995912 -0.00317857 0)
(1.03116 0.00219542 0)
(1.00171 -0.00281329 0)
(1.02779 0.00180594 0)
(1.00634 -0.0024748 0)
(1.02467 0.00144263 0)
(1.0099 -0.00215886 0)
(1.02195 0.00110101 0)
(1.01244 -0.00185503 0)
(1.01968 0.000784363 0)
(1.01406 -0.00155058 0)
(1.01785 0.000495734 0)
(1.01483 -0.0012294 0)
(1.01635 0.000242508 0)
(1.01482 -0.000873838 0)
(1.015 4.20966e-05 0)
(1.01406 -0.000462254 0)
(1.0135 -6.22122e-06 0)
(1.01246 2.74992e-05 0)
(1.01144 0.00109607 0)
(1.0099 0.00164996 0)
(1.00917 0.00843283 0)
(0.973064 -0.00489338 0)
(1.02634 0.00410005 0)
(0.98112 -0.00442913 0)
(1.0249 0.00352409 0)
(0.989698 -0.00395888 0)
(1.0231 0.0029937 0)
(0.996323 -0.00351368 0)
(1.0208 0.00250731 0)
(1.00138 -0.00310593 0)
(1.01856 0.00207523 0)
(1.00517 -0.00272802 0)
(1.01659 0.00168799 0)
(1.0079 -0.00237936 0)
(1.01499 0.0013279 0)
(1.00972 -0.00205474 0)
(1.01375 0.00099048 0)
(1.01081 -0.00174288 0)
(1.0128 0.000679442 0)
(1.0113 -0.00143077 0)
(1.01204 0.000400194 0)
(1.0113 -0.00110442 0)
(1.01131 0.000167549 0)
(1.01085 -0.000748112 0)
(1.01044 4.2679e-06 0)
(1.00992 -0.000363771 0)
(1.0092 4.21489e-05 0)
(1.00838 0.000223402 0)
(1.0073 0.00105954 0)
(1.00623 0.00260499 0)
(1.00551 0.00619723 0)
(0.983647 -0.00486137 0)
(1.01489 0.00398081 0)
(0.988725 -0.00439189 0)
(1.01378 0.00340593 0)
(0.99474 -0.00391148 0)
(1.01271 0.0028789 0)
(0.999134 -0.00345275 0)
(1.01142 0.00239875 0)
(1.00227 -0.00303448 0)
(1.01028 0.00197078 0)
(1.00447 -0.00264811 0)
(1.0094 0.00158589 0)
(1.00594 -0.00229089 0)
(1.00876 0.00122605 0)
(1.00685 -0.00195569 0)
(1.00829 0.000885683 0)
(1.00732 -0.00162947 0)
(1.00791 0.000568157 0)
(1.00745 -0.0012983 0)
(1.00753 0.000280684 0)
(1.00728 -0.000949041 0)
(1.00703 4.26037e-05 0)
(1.00679 -0.000551941 0)
(1.0063 -0.000123651 0)
(1.00588 -0.000110434 0)
(1.00516 -0.000107941 0)
(1.0044 0.000769101 0)
(1.00344 0.000589281 0)
(1.0024 0.0040907 0)
(1.00197 0.00466509 0)
(0.990788 -0.00481359 0)
(1.00729 0.00387933 0)
(0.993152 -0.00434318 0)
(1.00657 0.00330549 0)
(0.996933 -0.00385826 0)
(1.00615 0.00278015 0)
(0.999546 -0.00339017 0)
(1.00558 0.00230454 0)
(1.00132 -0.00296385 0)
(1.00512 0.00187799 0)
(1.00253 -0.00257033 0)
(1.0048 0.0014922 0)
(1.00332 -0.00220542 0)
(1.00459 0.00113005 0)
(1.00381 -0.0018615 0)
(1.00442 0.000786783 0)
(1.00404 -0.00152611 0)
(1.00423 0.000468372 0)
(1.00404 -0.00118793 0)
(1.00396 0.000187645 0)
(1.00382 -0.000840012 0)
(1.00354 -2.94062e-05 0)
(1.0033 -0.000470736 0)
(1.00286 -0.000121329 0)
(1.00239 -9.09481e-05 0)
(1.00177 0.000136899 0)
(1.00096 0.000287772 0)
(1.00019 0.00185813 0)
(0.999228 0.00259623 0)
(0.998999 0.0102064 0)
(0.995127 -0.00475443 0)
(1.00277 0.00379388 0)
(0.995528 -0.00428548 0)
(1.00236 0.0032198 0)
(0.997757 -0.00379934 0)
(1.00234 0.00269227 0)
(0.999209 -0.00332358 0)
(1.00213 0.00221728 0)
(1.00015 -0.00288926 0)
(1.00198 0.00178789 0)
(1.0008 -0.00248784 0)
(1.00187 0.0013971 0)
(1.00123 -0.00211415 0)
(1.0018 0.00102943 0)
(1.00148 -0.00176075 0)
(1.00171 0.000681841 0)
(1.00157 -0.00141664 0)
(1.00158 0.000363923 0)
(1.0015 -0.00107352 0)
(1.00134 9.36514e-05 0)
(1.00122 -0.000720162 0)
(1.00092 -0.000106073 0)
(1.00067 -0.000368158 0)
(1.00024 -0.000147061 0)
(0.99977 7.90007e-06 0)
(0.999116 0.000192583 0)
(0.998431 0.000403907 0)
(0.997601 0.00204082 0)
(0.997199 0.00232064 0)
(0.996678 0.0100175 0)
(0.997559 -0.00468656 0)
(1.00029 0.00371699 0)
(0.996763 -0.00421921 0)
(1.00006 0.00314122 0)
(0.998074 -0.00373327 0)
(1.00023 0.00260748 0)
(0.998862 -0.00325017 0)
(1.00018 0.00212962 0)
(0.999339 -0.00280682 0)
(1.00013 0.00169372 0)
(0.999662 -0.00239557 0)
(1.00008 0.00129374 0)
(0.999871 -0.00201002 0)
(1.00004 0.000915384 0)
(0.999973 -0.00164208 0)
(0.999963 0.000556467 0)
(0.999958 -0.00128133 0)
(0.999822 0.000229288 0)
(0.999806 -0.000920936 0)
(0.99957 -4.58801e-05 0)
(0.999476 -0.000546057 0)
(0.999139 -0.000245684 0)
(0.9989 -0.000156121 0)
(0.998429 -0.000298925 0)
(0.997977 0.000320912 0)
(0.997299 -0.000108575 0)
(0.996668 0.00138455 0)
(0.995843 0.000759942 0)
(0.995628 0.00391585 0)
(0.995285 0.00263652 0)
(0.998848 -0.00461125 0)
(0.998998 0.00364094 0)
(0.99741 -0.00414397 0)
(0.998859 0.00306279 0)
(0.998231 -0.00365889 0)
(0.999106 0.00252029 0)
(0.998664 -0.00316896 0)
(0.99912 0.00203862 0)
(0.998885 -0.00271706 0)
(0.999096 0.00159689 0)
(0.999018 -0.00229823 0)
(0.999062 0.00119127 0)
(0.999085 -0.00190663 0)
(0.999014 0.000810623 0)
(0.999082 -0.00153578 0)
(0.998931 0.0004564 0)
(0.998988 -0.0011788 0)
(0.998776 0.000146412 0)
(0.998775 -0.000832467 0)
(0.998507 -9.54553e-05 0)
(0.998399 -0.000495039 0)
(0.998056 -0.000228843 0)
(0.997788 -0.000156059 0)
(0.997328 -0.000194874 0)
(0.996841 0.000292765 0)
(0.996218 0.000135362 0)
(0.995513 0.00136849 0)
(0.994835 0.00101022 0)
(0.994306 0.00402827 0)
(0.994747 0.00165332 0)
(0.99951 -0.00452897 0)
(0.998346 0.00355999 0)
(0.997754 -0.00405885 0)
(0.998249 0.00297925 0)
(0.998327 -0.00357436 0)
(0.998532 0.00242543 0)
(0.998577 -0.00307663 0)
(0.998571 0.00193774 0)
(0.99866 -0.00261356 0)
(0.998556 0.00148684 0)
(0.998686 -0.0021829 0)
(0.998521 0.00107023 0)
(0.998669 -0.0017786 0)
(0.998466 0.000679084 0)
(0.998601 -0.00139481 0)
(0.998371 0.000317655 0)
(0.998458 -0.00102672 0)
(0.998201 7.02984e-06 0)
(0.998209 -0.000669802 0)
(0.997913 -0.000228374 0)
(0.997806 -0.00033373 0)
(0.997441 -0.000333114 0)
(0.997178 -4.88901e-07 0)
(0.996695 -0.000257872 0)
(0.996228 0.000434498 0)
(0.995587 0.000216473 0)
(0.994927 0.0012823 0)
(0.994289 0.00165128 0)
(0.993789 0.0039539 0)
(0.994718 0.00611407 0)
(0.999844 -0.00444 0)
(0.998025 0.00347111 0)
(0.997936 -0.00396352 0)
(0.997951 0.0028887 0)
(0.998387 -0.00348014 0)
(0.998253 0.00232296 0)
(0.998545 -0.00297595 0)
(0.998306 0.00183083 0)
(0.998557 -0.00250396 0)
(0.998297 0.00137459 0)
(0.998525 -0.00206678 0)
(0.99826 0.000954551 0)
(0.99846 -0.00165995 0)
(0.998201 0.000566424 0)
(0.998356 -0.00128066 0)
(0.9981 0.000219459 0)
(0.998185 -0.000928139 0)
(0.997922 -6.14594e-05 0)
(0.997913 -0.000604218 0)
(0.997624 -0.000243723 0)
(0.997495 -0.000315039 0)
(0.997141 -0.000267855 0)
(0.996856 -3.36742e-05 0)
(0.996387 -5.39354e-05 0)
(0.995915 0.000270072 0)
(0.995288 0.000632515 0)
(0.994675 0.000997842 0)
(0.994108 0.00244367 0)
(0.993867 0.00364906 0)
(0.994726 0.0103017 0)
(1.00001 -0.00434419 0)
(0.997872 0.00337196 0)
(0.998037 -0.00385652 0)
(0.997811 0.00278839 0)
(0.998427 -0.00337373 0)
(0.998126 0.00220882 0)
(0.998541 -0.00286231 0)
(0.998188 0.00171091 0)
(0.998516 -0.00237947 0)
(0.998183 0.00124759 0)
(0.998455 -0.00193334 0)
(0.998147 0.000821588 0)
(0.998366 -0.00152065 0)
(0.998086 0.000432996 0)
(0.998243 -0.00114102 0)
(0.997981 9.52979e-05 0)
(0.998059 -0.000795866 0)
(0.997798 -0.000165896 0)
(0.997779 -0.000496299 0)
(0.997492 -0.000307484 0)
(0.997358 -0.000232258 0)
(0.997001 -0.000285283 0)
(0.996728 4.44693e-05 0)
(0.996236 -2.96029e-05 0)
(0.995811 0.000468364 0)
(0.995158 0.000637851 0)
(0.994643 0.00149673 0)
(0.994102 0.00237211 0)
(0.994392 0.00398945 0)
(0.99504 0.00644487 0)
(1.0001 -0.00424151 0)
(0.997796 0.00326151 0)
(0.998102 -0.00373737 0)
(0.997743 0.00267788 0)
(0.998463 -0.00325555 0)
(0.998066 0.00208388 0)
(0.998556 -0.00273825 0)
(0.998135 0.00158173 0)
(0.998513 -0.00224677 0)
(0.998135 0.00111476 0)
(0.998436 -0.00179605 0)
(0.998102 0.000688604 0)
(0.998333 -0.00138454 0)
(0.998043 0.000308558 0)
(0.998198 -0.00101491 0)
(0.99794 -7.15974e-06 0)
(0.998005 -0.000689392 0)
(0.997757 -0.000233637 0)
(0.99772 -0.000422625 0)
(0.997452 -0.000324078 0)
(0.997297 -0.000191962 0)
(0.996964 -0.000255503 0)
(0.996667 8.38076e-05 0)
(0.996221 -3.03524e-05 0)
(0.995764 0.000707855 0)
(0.995193 0.000577466 0)
(0.994663 0.00207048 0)
(0.994222 0.00227139 0)
(0.994213 0.00460601 0)
(0.995489 0.00287501 0)
(1.00016 -0.00413153 0)
(0.997753 0.00313832 0)
(0.998153 -0.00360462 0)
(0.997703 0.00255517 0)
(0.998501 -0.0031236 0)
(0.99803 0.0019453 0)
(0.998586 -0.00260076 0)
(0.998102 0.00143878 0)
(0.998536 -0.00210067 0)
(0.998102 0.000968878 0)
(0.998453 -0.00164654 0)
(0.998068 0.000544347 0)
(0.998347 -0.00123914 0)
(0.998008 0.00017751 0)
(0.998211 -0.000888118 0)
(0.997903 -0.000108551 0)
(0.998018 -0.000598421 0)
(0.997717 -0.000285733 0)
(0.997738 -0.000375829 0)
(0.997408 -0.000311791 0)
(0.997322 -0.0001912 0)
(0.996921 -0.000167182 0)
(0.9967 4.63108e-05 0)
(0.996199 0.000205361 0)
(0.995825 0.000548281 0)
(0.995228 0.00103877 0)
(0.994809 0.00181667 0)
(0.994367 0.00307371 0)
(0.994396 0.00481815 0)
(0.996146 0.00718397 0)
(1.0002 -0.00401472 0)
(0.997733 0.00300283 0)
(0.998191 -0.00345907 0)
(0.997683 0.00242242 0)
(0.998529 -0.00298082 0)
(0.998014 0.00179824 0)
(0.99861 -0.00245642 0)
(0.998088 0.00129202 0)
(0.998555 -0.00195361 0)
(0.998091 0.000827229 0)
(0.998468 -0.00150518 0)
(0.998059 0.000415044 0)
(0.998359 -0.00111534 0)
(0.998 7.82181e-05 0)
(0.99822 -0.000802764 0)
(0.997896 -0.000158889 0)
(0.998028 -0.000573443 0)
(0.997711 -0.00026443 0)
(0.997751 -0.000413074 0)
(0.997404 -0.000213146 0)
(0.997342 -0.000281801 0)
(0.996922 1.07651e-05 0)
(0.996738 -0.000112301 0)
(0.996214 0.000568943 0)
(0.995899 0.00029985 0)
(0.995301 0.00163901 0)
(0.994986 0.00145455 0)
(0.994626 0.00392005 0)
(0.994911 0.00490918 0)
(0.996357 0.0117303 0)
(1.00022 -0.0038892 0)
(0.997733 0.00285137 0)
(0.998214 -0.00329676 0)
(0.997685 0.00227408 0)
(0.998544 -0.00282092 0)
(0.998021 0.00163438 0)
(0.998621 -0.00229542 0)
(0.998098 0.00112905 0)
(0.998562 -0.00179045 0)
(0.998103 0.000670786 0)
(0.998472 -0.00134783 0)
(0.998073 0.00027224 0)
(0.998362 -0.000977248 0)
(0.998013 -3.39043e-05 0)
(0.998225 -0.000690514 0)
(0.997908 -0.000229815 0)
(0.998038 -0.000501057 0)
(0.99772 -0.000289809 0)
(0.997769 -0.000362547 0)
(0.997412 -0.000220634 0)
(0.99737 -0.000205676 0)
(0.996932 -2.13107e-05 0)
(0.996792 8.34652e-05 0)
(0.996243 0.000417887 0)
(0.995996 0.000742484 0)
(0.995386 0.00143363 0)
(0.995188 0.0022406 0)
(0.994927 0.00351708 0)
(0.995786 0.00497276 0)
(0.996775 0.00698002 0)
(1.00023 -0.00375631 0)
(0.997747 0.00268624 0)
(0.998231 -0.00312092 0)
(0.9977 0.00211349 0)
(0.998553 -0.00264942 0)
(0.998041 0.00145845 0)
(0.998628 -0.002126 0)
(0.998124 0.000956538 0)
(0.998564 -0.00162326 0)
(0.998133 0.000509351 0)
(0.99847 -0.00119429 0)
(0.998106 0.00013471 0)
(0.998357 -0.00087577 0)
(0.99805 -0.000130047 0)
(0.998219 -0.000635514 0)
(0.997945 -0.000269775 0)
(0.998033 -0.000483471 0)
(0.997761 -0.000283683 0)
(0.997766 -0.000353974 0)
(0.99746 -0.000201512 0)
(0.99737 -0.000161384 0)
(0.996999 -4.35164e-05 0)
(0.996799 0.000253398 0)
(0.996346 0.000284389 0)
(0.99605 0.00113759 0)
(0.995574 0.00128181 0)
(0.995331 0.00296182 0)
(0.995134 0.00330993 0)
(0.995535 0.00513573 0)
(0.997303 0.00276579 0)
(1.00023 -0.00362097 0)
(0.997762 0.00251527 0)
(0.998252 -0.0029394 0)
(0.99771 0.00195684 0)
(0.998571 -0.00248104 0)
(0.998053 0.00129803 0)
(0.99865 -0.00197355 0)
(0.998135 0.000817003 0)
(0.998588 -0.00149122 0)
(0.998142 0.000403249 0)
(0.998497 -0.00109609 0)
(0.99811 7.9184e-05 0)
(0.998389 -0.000791614 0)
(0.99805 -0.000146444 0)
(0.998258 -0.000612311 0)
(0.99794 -0.00023209 0)
(0.99808 -0.000507648 0)
(0.997754 -0.000197534 0)
(0.99782 -0.000407932 0)
(0.997456 -6.41048e-05 0)
(0.99743 -0.000230499 0)
(0.997009 0.00016699 0)
(0.996875 0.00010187 0)
(0.996399 0.000652154 0)
(0.996185 0.000911317 0)
(0.995715 0.00181884 0)
(0.995569 0.00266619 0)
(0.995355 0.00426396 0)
(0.995715 0.00579362 0)
(0.998105 0.00770234 0)
(1.00022 -0.00345932 0)
(0.997799 0.00229956 0)
(0.998255 -0.00271163 0)
(0.997739 0.00174077 0)
(0.99857 -0.00225117 0)
(0.998083 0.00105785 0)
(0.998653 -0.00174181 0)
(0.998166 0.000575894 0)
(0.998592 -0.00125976 0)
(0.998172 0.000172633 0)
(0.998503 -0.000890074 0)
(0.998141 -0.000122843 0)
(0.998397 -0.000626998 0)
(0.998076 -0.000293832 0)
(0.998272 -0.00049967 0)
(0.997965 -0.000315851 0)
(0.998099 -0.000456441 0)
(0.997779 -0.000217019 0)
(0.997845 -0.000432991 0)
(0.997488 6.76653e-06 0)
(0.997465 -0.000358163 0)
(0.99705 0.00043601 0)
(0.996935 -0.00012123 0)
(0.996476 0.00121934 0)
(0.996305 0.000564119 0)
(0.995882 0.0025594 0)
(0.995836 0.00214919 0)
(0.995744 0.00531058 0)
(0.996287 0.0062544 0)
(0.998003 0.0129892 0)
(1.00019 -0.00333025 0)
(0.99787 0.00213284 0)
(0.998234 -0.00253579 0)
(0.997804 0.00160794 0)
(0.998543 -0.00211108 0)
(0.998151 0.000943483 0)
(0.99863 -0.00165022 0)
(0.998234 0.000516418 0)
(0.998571 -0.00122661 0)
(0.998237 0.000187884 0)
(0.998487 -0.000939651 0)
(0.998199 -3.1603e-05 0)
(0.998389 -0.00079494 0)
(0.998128 -0.000105342 0)
(0.998273 -0.000728697 0)
(0.99801 -8.09654e-05 0)
(0.99811 -0.000687194 0)
(0.99782 -1.37628e-06 0)
(0.997869 -0.000601436 0)
(0.997525 0.000134145 0)
(0.997514 -0.00039183 0)
(0.997099 0.000430528 0)
(0.997024 9.68751e-05 0)
(0.996559 0.00105876 0)
(0.996447 0.00104767 0)
(0.996044 0.00237512 0)
(0.996129 0.00300678 0)
(0.996222 0.00476723 0)
(0.99737 0.00578128 0)
(0.998289 0.00707922 0)
(1.00014 -0.00313165 0)
(0.997956 0.00185532 0)
(0.998211 -0.00224749 0)
(0.997882 0.00133096 0)
(0.998514 -0.00181588 0)
(0.998233 0.000640737 0)
(0.998608 -0.00135302 0)
(0.998319 0.000215252 0)
(0.998551 -0.000917998 0)
(0.998319 -9.83947e-05 0)
(0.998468 -0.000609081 0)
(0.998279 -0.000323804 0)
(0.998374 -0.000418727 0)
(0.998207 -0.000441895 0)
(0.998259 -0.000274759 0)
(0.998092 -0.000516215 0)
(0.998095 -0.000100892 0)
(0.99791 -0.000564999 0)
(0.997852 0.000167886 0)
(0.997634 -0.000579318 0)
(0.9975 0.000555967 0)
(0.997238 -0.000477876 0)
(0.997031 0.00120484 0)
(0.996746 -4.92405e-05 0)
(0.996541 0.00233153 0)
(0.996355 0.00124524 0)
(0.996317 0.00447644 0)
(0.996411 0.00354972 0)
(0.99678 0.00650095 0)
(0.998795 0.00252843 0)
(1.00012 -0.00299906 0)
(0.998026 0.00167593 0)
(0.998214 -0.00206367 0)
(0.997936 0.00119661 0)
(0.998516 -0.00167963 0)
(0.998286 0.000535892 0)
(0.998623 -0.00128947 0)
(0.998369 0.000177599 0)
(0.998575 -0.000957241 0)
(0.998361 -2.21107e-05 0)
(0.998499 -0.000794581 0)
(0.998313 -9.78667e-05 0)
(0.998413 -0.000767111 0)
(0.998236 -6.60689e-05 0)
(0.998304 -0.000791204 0)
(0.99812 3.83736e-05 0)
(0.998146 -0.000824904 0)
(0.997941 0.000228675 0)
(0.99791 -0.000829568 0)
(0.997667 0.000599786 0)
(0.997572 -0.000752325 0)
(0.99729 0.00113827 0)
(0.997137 -0.000456544 0)
(0.996851 0.00206635 0)
(0.996726 0.000394601 0)
(0.996563 0.00353324 0)
(0.996641 0.00200728 0)
(0.996766 0.00622645 0)
(0.997183 0.00608533 0)
(0.999014 0.0136013 0)
(1.00008 -0.00279625 0)
(0.99812 0.00139659 0)
(0.998201 -0.00177636 0)
(0.998017 0.000942608 0)
(0.998497 -0.00141016 0)
(0.998368 0.000288569 0)
(0.998614 -0.00106108 0)
(0.998449 -3.7021e-05 0)
(0.998573 -0.000775157 0)
(0.998433 -0.000185254 0)
(0.998505 -0.00066263 0)
(0.998377 -0.000223348 0)
(0.998428 -0.000630583 0)
(0.998293 -0.000216195 0)
(0.998328 -0.000598627 0)
(0.99817 -0.000208896 0)
(0.998182 -0.000525175 0)
(0.997985 -0.000171921 0)
(0.997974 -0.000392802 0)
(0.997714 -6.22195e-06 0)
(0.997662 -5.65588e-05 0)
(0.997348 0.000424374 0)
(0.997279 0.000508714 0)
(0.996957 0.00120946 0)
(0.996917 0.0015748 0)
(0.996735 0.00266611 0)
(0.997001 0.00344834 0)
(0.997405 0.00482101 0)
(0.998662 0.00580579 0)
(0.999226 0.00720349 0)
(1.00006 -0.00264603 0)
(0.998211 0.00117847 0)
(0.998207 -0.0015609 0)
(0.998094 0.000775029 0)
(0.998492 -0.00123531 0)
(0.99845 0.000153698 0)
(0.998616 -0.000921902 0)
(0.998535 -0.000123628 0)
(0.998578 -0.000669958 0)
(0.998517 -0.000233574 0)
(0.998511 -0.000556135 0)
(0.998461 -0.00028657 0)
(0.998429 -0.000464322 0)
(0.998384 -0.000342676 0)
(0.99832 -0.000287029 0)
(0.998273 -0.000446935 0)
(0.998167 -2.44234e-05 0)
(0.998102 -0.000573933 0)
(0.997952 0.000377036 0)
(0.99786 -0.000704592 0)
(0.997663 0.000952163 0)
(0.997525 -0.000651346 0)
(0.997304 0.00179698 0)
(0.997189 -0.000202934 0)
(0.997055 0.00310379 0)
(0.997092 0.00122436 0)
(0.997168 0.00536841 0)
(0.99743 0.00335662 0)
(0.997795 0.00648351 0)
(0.999748 0.000923734 0)
(1.00009 -0.00241075 0)
(0.998242 0.000859811 0)
(0.99828 -0.00125542 0)
(0.998099 0.000499117 0)
(0.998559 -0.000973511 0)
(0.998455 -9.40831e-05 0)
(0.998698 -0.000749574 0)
(0.998536 -0.000278871 0)
(0.998668 -0.00060243 0)
(0.998511 -0.000262271 0)
(0.998605 -0.000638905 0)
(0.998454 -0.000167628 0)
(0.998525 -0.000757855 0)
(0.998384 -1.43745e-05 0)
(0.998416 -0.000918952 0)
(0.998277 0.000244551 0)
(0.998263 -0.0010489 0)
(0.998122 0.00057541 0)
(0.998048 -0.00108862 0)
(0.997893 0.000982338 0)
(0.997756 -0.000962914 0)
(0.997596 0.00150339 0)
(0.997441 -0.0004713 0)
(0.997328 0.00233188 0)
(0.99729 0.000519602 0)
(0.997363 0.00373997 0)
(0.997568 0.00249583 0)
(0.997809 0.00689238 0)
(0.998097 0.00734672 0)
(0.999875 0.0135411 0)
(1.00009 -0.00231287 0)
(0.998316 0.000725491 0)
(0.998319 -0.00112551 0)
(0.998144 0.000447657 0)
(0.998587 -0.000913451 0)
(0.998498 -0.000113173 0)
(0.998742 -0.000795509 0)
(0.998577 -0.00023527 0)
(0.998723 -0.000691686 0)
(0.998541 -0.000185604 0)
(0.998667 -0.000724531 0)
(0.998474 -9.81225e-05 0)
(0.998596 -0.000813697 0)
(0.998387 3.97778e-05 0)
(0.998506 -0.000944297 0)
(0.998274 0.000295272 0)
(0.998371 -0.00106492 0)
(0.998112 0.000640563 0)
(0.998178 -0.00113315 0)
(0.997896 0.00111797 0)
(0.99792 -0.00101624 0)
(0.997632 0.0017931 0)
(0.997634 -0.000573651 0)
(0.997415 0.00273137 0)
(0.997531 0.000329118 0)
(0.997582 0.00397349 0)
(0.998118 0.00192304 0)
(0.998761 0.00660401 0)
(0.999782 0.00668923 0)
(0.999302 0.0134922 0)
(1.00004 -0.00203615 0)
(0.998455 0.000341289 0)
(0.998313 -0.000727929 0)
(0.998252 0.000110471 0)
(0.998567 -0.000486591 0)
(0.998605 -0.000446835 0)
(0.998738 -0.000380993 0)
(0.998686 -0.000609903 0)
(0.998725 -0.000217758 0)
(0.998647 -0.000678493 0)
(0.998669 -9.05813e-05 0)
(0.99858 -0.00078893 0)
(0.998599 6.72276e-05 0)
(0.998499 -0.000916163 0)
(0.998513 0.000296529 0)
(0.998386 -0.00105029 0)
(0.998383 0.000564092 0)
(0.998228 -0.0011064 0)
(0.998203 0.000895819 0)
(0.998021 -0.00100889 0)
(0.997967 0.00132853 0)
(0.99778 -0.000658567 0)
(0.997732 0.0019797 0)
(0.997613 0.000112063 0)
(0.997685 0.00304977 0)
(0.997832 0.00122347 0)
(0.998374 0.00410351 0)
(0.999187 0.0016699 0)
(1.00025 0.00348996 0)
(0.999794 0.000111316 0)
(1.00002 -0.00190413 0)
(0.998585 0.000159592 0)
(0.998341 -0.000702921 0)
(0.998344 0.000100366 0)
(0.998581 -0.000656099 0)
(0.99869 -0.000302743 0)
(0.998768 -0.000664494 0)
(0.998774 -0.000361897 0)
(0.998758 -0.000560017 0)
(0.998734 -0.000368992 0)
(0.998698 -0.000466758 0)
(0.998671 -0.000437446 0)
(0.998624 -0.000342285 0)
(0.998595 -0.000539774 0)
(0.998532 -0.000167775 0)
(0.998493 -0.000665896 0)
(0.998407 9.68816e-05 0)
(0.998347 -0.000699265 0)
(0.998241 0.000451657 0)
(0.998157 -0.000559771 0)
(0.998036 0.000946193 0)
(0.997948 -0.000114969 0)
(0.997853 0.00168871 0)
(0.997841 0.000735794 0)
(0.997856 0.00273708 0)
(0.998026 0.00184217 0)
(0.998283 0.00345744 0)
(0.998728 0.00154905 0)
(0.999326 0.00187987 0)
(1.00153 0.000166117 0)
(1.00003 -0.00174798 0)
(0.998664 -5.39717e-05 0)
(0.998422 -0.000512044 0)
(0.998378 -2.78633e-05 0)
(0.998649 -0.000266 0)
(0.998726 -0.000532182 0)
(0.998851 -0.000351472 0)
(0.998816 -0.000618 0)
(0.998844 -0.000276821 0)
(0.998776 -0.000610778 0)
(0.998781 -0.000219895 0)
(0.998715 -0.000598262 0)
(0.998706 -0.000174884 0)
(0.998643 -0.00056335 0)
(0.998613 -0.000128004 0)
(0.998549 -0.000495525 0)
(0.998493 -6.44162e-05 0)
(0.998416 -0.000356629 0)
(0.998341 0.000101875 0)
(0.998247 -6.3454e-05 0)
(0.998167 0.000483073 0)
(0.998075 0.000481185 0)
(0.998033 0.00117023 0)
(0.998004 0.0013056 0)
(0.99807 0.00205275 0)
(0.998163 0.00238559 0)
(0.998386 0.0032 0)
(0.998862 0.00385261 0)
(0.999992 0.00490147 0)
(1.00376 0.00611157 0)
(1.00003 -0.00144714 0)
(0.998785 -0.000379982 0)
(0.998489 -0.000308311 0)
(0.998473 -0.000162733 0)
(0.998682 -0.000275705 0)
(0.99879 -0.000428977 0)
(0.998905 -0.000511409 0)
(0.99889 -0.000396491 0)
(0.998904 -0.000608963 0)
(0.99885 -0.00022855 0)
(0.998844 -0.00072583 0)
(0.998787 -1.97409e-05 0)
(0.998773 -0.000878971 0)
(0.998714 0.000210725 0)
(0.998685 -0.0010262 0)
(0.998616 0.000489138 0)
(0.998572 -0.00109113 0)
(0.998492 0.000789644 0)
(0.998436 -0.000965667 0)
(0.998352 0.00119272 0)
(0.99829 -0.000552315 0)
(0.998225 0.00178082 0)
(0.998184 0.000159504 0)
(0.99819 0.00249169 0)
(0.998277 0.00100367 0)
(0.998483 0.00350439 0)
(0.99886 0.00249977 0)
(0.999407 0.0063675 0)
(1.0002 0.00741931 0)
(1.00285 0.0124442 0)
(1.00001 -0.00156859 0)
(0.998905 -0.000266627 0)
(0.998556 -0.000580971 0)
(0.998531 0.000127966 0)
(0.998742 -0.000467805 0)
(0.998853 -0.000215375 0)
(0.998975 -0.000660553 0)
(0.998953 -0.000302011 0)
(0.998987 -0.00067376 0)
(0.998905 -0.000257141 0)
(0.998936 -0.000665603 0)
(0.998833 -0.000201014 0)
(0.998872 -0.000669768 0)
(0.998755 -0.000157567 0)
(0.998796 -0.000660017 0)
(0.998667 -8.55073e-05 0)
(0.998691 -0.000544296 0)
(0.998564 0.000104329 0)
(0.998571 -0.000238524 0)
(0.998455 0.000486329 0)
(0.998452 0.000300918 0)
(0.998362 0.00110033 0)
(0.998366 0.00105504 0)
(0.998343 0.0019332 0)
(0.998512 0.0020281 0)
(0.998723 0.00293542 0)
(0.99946 0.00309294 0)
(1.00063 0.00383503 0)
(1.00226 0.00394601 0)
(1.00291 0.00509726 0)
(0.999974 -0.000939252 0)
(0.999069 -0.00094685 0)
(0.998615 -8.9154e-06 0)
(0.998686 -0.000468596 0)
(0.998741 0.00025449 0)
(0.99897 -0.000881555 0)
(0.99899 0.000107336 0)
(0.999085 -0.00111256 0)
(0.999007 0.000215323 0)
(0.999044 -0.00119515 0)
(0.998953 0.000392593 0)
(0.998975 -0.00127042 0)
(0.998884 0.000570182 0)
(0.998899 -0.00133922 0)
(0.998806 0.000755266 0)
(0.998816 -0.00135937 0)
(0.998721 0.000952224 0)
(0.998728 -0.00123337 0)
(0.998635 0.00121428 0)
(0.998643 -0.000886921 0)
(0.998558 0.00168616 0)
(0.99858 -0.000234384 0)
(0.998533 0.00244018 0)
(0.998623 0.000809014 0)
(0.998705 0.00351254 0)
(0.998968 0.00183859 0)
(0.999276 0.00413192 0)
(0.999803 0.00131942 0)
(1.00073 0.00210705 0)
(1.00408 -0.000457271 0)
(1.00001 -0.00147156 0)
(0.999133 -0.000249731 0)
(0.998754 -0.000853026 0)
(0.998703 0.00048072 0)
(0.998853 -0.000875755 0)
(0.998987 0.000353127 0)
(0.999098 -0.00114733 0)
(0.999118 0.000231005 0)
(0.999124 -0.00119182 0)
(0.999085 0.000242709 0)
(0.999069 -0.00112782 0)
(0.999019 0.000293705 0)
(0.999001 -0.00103529 0)
(0.998949 0.000364456 0)
(0.998928 -0.000927707 0)
(0.998872 0.000461156 0)
(0.998848 -0.000771535 0)
(0.99879 0.000624414 0)
(0.998775 -0.000481615 0)
(0.998741 0.000962637 0)
(0.998739 3.40266e-05 0)
(0.998738 0.00157485 0)
(0.998778 0.000876772 0)
(0.998837 0.00253968 0)
(0.998949 0.00202198 0)
(0.999104 0.00362358 0)
(0.999393 0.00302427 0)
(1.0001 0.00442259 0)
(1.00182 0.00446983 0)
(1.00622 0.00768764 0)
(1.00002 -0.000556339 0)
(0.999234 -0.00133544 0)
(0.998878 -2.06718e-06 0)
(0.998792 -0.00057388 0)
(0.998921 0.000454798 0)
(0.999049 -0.000847801 0)
(0.999169 0.000284142 0)
(0.99919 -0.00106587 0)
(0.999201 0.000227958 0)
(0.999165 -0.00111531 0)
(0.999152 0.000281537 0)
(0.999104 -0.00105497 0)
(0.999086 0.000364374 0)
(0.999033 -0.000956776 0)
(0.999013 0.000438754 0)
(0.998962 -0.000833279 0)
(0.998943 0.000543879 0)
(0.99891 -0.00061911 0)
(0.998901 0.000819845 0)
(0.998888 -0.000212456 0)
(0.998904 0.00130253 0)
(0.998931 0.000471744 0)
(0.998998 0.00205386 0)
(0.999096 0.001431 0)
(0.999241 0.00314103 0)
(0.999437 0.00293662 0)
(0.999753 0.00504235 0)
(1.00049 0.00527316 0)
(1.00224 0.00680797 0)
(1.00672 0.00522187 0)
(1.00002 -0.00114285 0)
(0.999342 -0.00022264 0)
(0.999004 -0.00114074 0)
(0.998906 0.000575037 0)
(0.998993 -0.0010137 0)
(0.999124 0.000732258 0)
(0.999239 -0.00143897 0)
(0.999268 0.000625432 0)
(0.999282 -0.00168279 0)
(0.999251 0.000685266 0)
(0.99924 -0.00167179 0)
(0.999193 0.000805745 0)
(0.999177 -0.00154855 0)
(0.999125 0.000903804 0)
(0.999108 -0.00134576 0)
(0.999058 0.0010174 0)
(0.999048 -0.00107619 0)
(0.99902 0.00118564 0)
(0.999025 -0.000720882 0)
(0.999034 0.00146718 0)
(0.999073 -0.000186925 0)
(0.999124 0.00206186 0)
(0.999216 0.000650248 0)
(0.999361 0.00293976 0)
(0.999608 0.001727 0)
(0.999968 0.00428269 0)
(1.00043 0.00400216 0)
(1.00098 0.00821573 0)
(1.00189 0.00962415 0)
(1.00518 0.0137435 0)
(0.999945 -0.000622657 0)
(0.999431 -0.00104083 0)
(0.999035 -0.000380494 0)
(0.998992 -0.00033322 0)
(0.999025 -5.12754e-06 0)
(0.999174 -0.000286674 0)
(0.999252 -0.000263741 0)
(0.999326 -0.000542875 0)
(0.999318 -0.000469493 0)
(0.999329 -0.000552152 0)
(0.999288 -0.000424355 0)
(0.999281 -0.000447078 0)
(0.999229 -0.000311527 0)
(0.999223 -0.000330362 0)
(0.999166 -0.000144973 0)
(0.999167 -0.000165768 0)
(0.999117 0.00011391 0)
(0.999138 9.66472e-05 0)
(0.999113 0.000455398 0)
(0.999172 0.000494391 0)
(0.999218 0.000947945 0)
(0.99932 0.00111928 0)
(0.999427 0.00176661 0)
(0.999591 0.00219054 0)
(0.999873 0.0029721 0)
(1.00043 0.0033018 0)
(1.00149 0.00383491 0)
(1.00299 0.00390246 0)
(1.0048 0.00422329 0)
(1.0045 0.00365144 0)
(0.99986 -0.000527719 0)
(0.99969 -0.000896549 0)
(0.999102 -0.000511076 0)
(0.999259 -0.000268858 0)
(0.999026 -0.000112608 0)
(0.999387 -0.00023727 0)
(0.999241 -0.000298342 0)
(0.999524 -0.000452405 0)
(0.999327 -0.000412729 0)
(0.999533 -0.000506724 0)
(0.999314 -0.000321112 0)
(0.999478 -0.000452328 0)
(0.999263 -0.000163697 0)
(0.999414 -0.000345072 0)
(0.999216 2.13162e-05 0)
(0.999363 -0.000178758 0)
(0.99919 0.000242775 0)
(0.999346 8.87243e-05 0)
(0.999218 0.000550422 0)
(0.999406 0.000549758 0)
(0.999353 0.00102326 0)
(0.99961 0.00109005 0)
(0.999675 0.00161121 0)
(1.00001 0.00176919 0)
(1.00012 0.00239057 0)
(1.0005 0.00275424 0)
(1.00074 0.00375094 0)
(1.00124 0.00437835 0)
(1.00168 0.00545288 0)
(1.00473 0.0059611 0)
(0.99993 -0.000883081 0)
(0.999591 -0.000380639 0)
(0.999238 -0.000935599 0)
(0.999196 0.000135051 0)
(0.999163 -0.000594782 0)
(0.999304 0.000252326 0)
(0.999357 -0.00078698 0)
(0.999464 3.01145e-06 0)
(0.999447 -0.000970063 0)
(0.999499 -5.93849e-05 0)
(0.999436 -0.000903121 0)
(0.999466 3.41329e-05 0)
(0.999388 -0.000731731 0)
(0.999417 0.000196668 0)
(0.999342 -0.000510338 0)
(0.999375 0.000418534 0)