/*--------------------------------*- C++ -*----------------------------------*\
| =========                 |                                                 |
| \\      /  F ield         | OpenFOAM: The Open Source CFD Toolbox           |
|  \\    /   O peration     | Version:  v2006                                 |
|   \\  /    A nd           | Website:  www.openfoam.com                      |
|    \\/     M anipulation  |                                                 |
\*---------------------------------------------------------------------------*/
FoamFile
{
    version     2.0;
    format      ascii;
    class       volScalarField;
    location    "0.7";
    object      p;
}
// * * * * * * * * * * * * * * * * * * * * * * * * * * * * * * * * * * * * * //

dimensions      [0 2 -2 0 0 0 0];


internalField   nonuniform List<scalar> 
26400
(
2.7038e-09
0.00270978
0.00254471
0.00198128
0.00195935
0.00315464
0.00204872
0.00177321
0.00203773
0.00267422
0.00230557
0.0025667
0.00226241
0.00245616
0.00228628
0.00260468
0.00249082
0.00279243
0.00267175
0.00303558
0.00302545
0.00352127
0.00367579
0.00432943
0.00472001
0.00565503
0.00647535
0.00807256
0.00980428
0.0124268
2.40058e-07
0.00270954
0.00254551
0.0019815
0.00195995
0.00315495
0.00204947
0.00177273
0.00203842
0.00267399
0.00230652
0.0025665
0.00226358
0.00245571
0.00228777
0.002604
0.0024928
0.0027914
0.00267425
0.00303363
0.00302865
0.00351719
0.00368042
0.00431975
0.00472798
0.00562138
0.00649206
0.00792033
0.00979199
0.0117346
1.08926e-06
0.0027096
0.0025469
0.00198161
0.00196116
0.00315549
0.00205076
0.00177162
0.00203991
0.00267363
0.00230853
0.00256605
0.00226588
0.00245473
0.0022906
0.00260267
0.0024964
0.00278954
0.00267848
0.00303048
0.00303355
0.00351174
0.00368614
0.00431014
0.00473477
0.00560293
0.00649103
0.0078443
0.00967361
0.0110718
3.17882e-06
0.0027105
0.00254842
0.00198168
0.00196294
0.00315642
0.00205229
0.00177025
0.00204195
0.00267349
0.0023111
0.00256561
0.00226868
0.0024535
0.00229398
0.00260103
0.00250059
0.00278711
0.00268329
0.00302624
0.00303913
0.0035046
0.0036924
0.0042973
0.00474103
0.00557185
0.00648475
0.00771307
0.00944642
0.010517
7.05062e-06
0.002712
0.00254996
0.0019817
0.00196531
0.00315761
0.00205403
0.00176856
0.00204438
0.00267337
0.00231396
0.00256491
0.0022717
0.00245176
0.00229766
0.00259877
0.00250511
0.00278381
0.00268836
0.00302073
0.00304486
0.00349599
0.00369833
0.00428268
0.00474393
0.00554502
0.00645656
0.00762103
0.00909634
0.0100682
1.28807e-05
0.00271373
0.00255149
0.00198137
0.00196819
0.00315884
0.00205591
0.00176623
0.00204704
0.00267299
0.002317
0.00256367
0.00227486
0.00244927
0.00230161
0.00259571
0.00251
0.0027795
0.00269375
0.00301394
0.00305073
0.00348639
0.00370391
0.00426973
0.00474244
0.00552437
0.00638751
0.007544
0.00870919
0.00951415
2.05045e-05
0.00271542
0.00255295
0.00198043
0.00197153
0.00315996
0.00205787
0.00176311
0.0020499
0.00267223
0.00232023
0.00256176
0.00227822
0.00244598
0.00230598
0.00259177
0.00251553
0.00277403
0.00269985
0.00300556
0.00305721
0.00347356
0.00370996
0.00425257
0.00474157
0.00548879
0.00636176
0.00736716
0.00854925
0.00909871
2.95749e-05
0.00271696
0.00255432
0.00197877
0.00197536
0.00316094
0.00205988
0.00175914
0.00205302
0.00267113
0.00232379
0.00255921
0.00228192
0.00244189
0.00231092
0.00258701
0.0025218
0.00276752
0.00270663
0.00299576
0.00306404
0.00346034
0.00371519
0.00423454
0.00473842
0.00544934
0.00630434
0.00719913
0.00822536
0.00865297
3.97284e-05
0.00271836
0.00255566
0.00197642
0.00197977
0.00316183
0.00206197
0.00175434
0.00205657
0.00266972
0.00232784
0.00255602
0.00228609
0.002437
0.0023165
0.00258146
0.00252879
0.00276011
0.00271392
0.00298593
0.0030706
0.00344772
0.00371754
0.00421964
0.00472121
0.00544748
0.00617938
0.00709724
0.00757732
0.00816203
5.06918e-05
0.0027197
0.00255705
0.00197341
0.00198487
0.00316269
0.00206418
0.00174869
0.00206065
0.00266803
0.00233254
0.00255213
0.00229086
0.00243119
0.00232286
0.00257499
0.00253668
0.00275143
0.00272196
0.00297369
0.00307765
0.0034326
0.00372033
0.00419974
0.00471115
0.00539833
0.00610854
0.00696366
0.00725479
0.00761454
6.23108e-05
0.00272103
0.0025586
0.0019698
0.00199075
0.00316355
0.00206651
0.00174214
0.00206539
0.00266603
0.00233798
0.00254749
0.00229626
0.00242446
0.00232991
0.00256765
0.00254533
0.00274189
0.00273024
0.00296062
0.00308431
0.00341655
0.00372238
0.0041759
0.00470007
0.0053312
0.00607378
0.00679394
0.00733748
0.00698886
7.45291e-05
0.00272233
0.00256038
0.00196558
0.00199753
0.00316441
0.00206897
0.00173461
0.00207088
0.00266368
0.00234427
0.00254201
0.00230237
0.00241672
0.00233772
0.00255931
0.00255473
0.00273148
0.00273843
0.00294718
0.00308955
0.00340079
0.00372082
0.00415217
0.00468067
0.00527449
0.00600237
0.0066172
0.00717601
0.0062423
8.73553e-05
0.00272356
0.00256247
0.00196076
0.00200529
0.00316526
0.00207155
0.00172601
0.0020772
0.00266092
0.0023515
0.00253564
0.00230917
0.00240801
0.00234619
0.0025501
0.00256452
0.0027207
0.00274593
0.00293399
0.00309246
0.00338587
0.00371411
0.00413053
0.00464943
0.00522993
0.00589
0.00643176
0.00671249
0.00582891
0.000100844
0.00272459
0.00256492
0.0019553
0.00201413
0.00316609
0.00207427
0.00171623
0.00208443
0.00265775
0.00235969
0.00252837
0.00231654
0.00239847
0.00235511
0.00254124
0.00257418
0.00271023
0.00275206
0.00292151
0.00309245
0.0033721
0.00370158
0.00411063
0.00460567
0.00518101
0.00576661
0.0062382
0.00602079
0.00524022
0.000115087
0.00272529
0.00256778
0.00194914
0.0020242
0.00316683
0.00207714
0.00170517
0.00209265
0.0026541
0.00236892
0.00252017
0.00232448
0.00238797
0.00236448
0.00253132
0.00258381
0.00269974
0.00275702
0.00290897
0.00309102
0.00335661
0.00368989
0.00407909
0.00456862
0.00509179
0.00565028
0.00606636
0.00609756
0.00483387
0.000130204
0.00272547
0.00257111
0.00194223
0.00203561
0.00316746
0.00208016
0.00169273
0.00210191
0.00264997
0.00237913
0.00251114
0.00233288
0.00237658
0.00237388
0.00252154
0.00259265
0.00269008
0.00275979
0.00289753
0.00308652
0.00334105
0.00367472
0.00403931
0.00452599
0.00499159
0.00551895
0.00585183
0.00592353
0.00408999
0.000146341
0.00272493
0.00257493
0.00193449
0.00204847
0.00316798
0.0020833
0.00167883
0.00211225
0.00264548
0.00239007
0.00250147
0.00234141
0.00236554
0.00238214
0.00251345
0.00259913
0.00268301
0.0027583
0.00288953
0.00307534
0.00333004
0.00364656
0.00401599
0.00445246
0.00491008
0.00533938
0.0055822
0.00540001
0.00384786
0.000163699
0.00272344
0.00257927
0.00192586
0.00206292
0.00316831
0.00208659
0.00166338
0.00212358
0.00264083
0.00240173
0.00249109
0.00234968
0.00235508
0.00238914
0.00250695
0.00260347
0.0026778
0.00275403
0.00288226
0.00306183
0.00331777
0.00361351
0.00398298
0.00437065
0.0048177
0.00515452
0.00526787
0.00453473
0.00334179
0.000182497
0.00272074
0.00258412
0.00191624
0.00207909
0.00316847
0.00208994
0.00164644
0.00213574
0.00263602
0.00241416
0.00248053
0.00235719
0.00234486
0.00239485
0.00250119
0.00260678
0.00267207
0.00275001
0.00287051
0.00305224
0.00329446
0.00358911
0.00392235
0.00429895
0.00467427
0.00498953
0.00511051
0.00477702
0.00299288
0.000202915
0.00271658
0.00258943
0.00190563
0.00209702
0.00316858
0.0020932
0.00162816
0.00214858
0.00263131
0.0024263
0.00247189
0.002364
0.00233577
0.00239879
0.00249716
0.0026081
0.0026674
0.00274406
0.00285791
0.0030409
0.00326716
0.00356303
0.00385438
0.00421434
0.00451563
0.00480088
0.00487128
0.00464127
0.00215
0.000225428
0.00271054
0.00259522
0.00189381
0.00211699
0.00316834
0.00209646
0.00160824
0.00216263
0.00262667
0.00243853
0.00246027
0.00237028
0.00232727
0.00240079
0.00249517
0.00260628
0.00266575
0.0027325
0.00285034
0.00301872
0.00324833
0.00351437
0.0038016
0.00410419
0.00437147
0.0045412
0.00450292
0.00406702
0.00224463
0.00025002
0.00270245
0.00260131
0.00188094
0.00213869
0.00316875
0.00209898
0.00158758
0.00217561
0.00262487
0.00244869
0.00246159
0.00236991
0.00232561
0.00239583
0.00250113
0.00259787
0.00267067
0.00271438
0.00284969
0.00298505
0.00323492
0.00344232
0.00374539
0.00397447
0.0042331
0.00426699
0.00404219
0.00299116
0.0018896
0.000277358
0.0026917
0.00260775
0.00186693
0.00216232
0.00316903
0.00210142
0.00156594
0.0021888
0.00262295
0.00245991
0.00245155
0.00237288
0.00231752
0.00239903
0.00249352
0.00260493
0.00265422
0.00271731
0.00281911
0.00298516
0.00317939
0.00341368
0.00363452
0.00386251
0.0039991
0.00405859
0.00393481
0.00359199
0.00161485
0.000307755
0.00267804
0.00261407
0.00185176
0.00218806
0.00316826
0.00210318
0.00154362
0.00220237
0.00262202
0.00246982
0.00244308
0.00237446
0.00231097
0.00239913
0.00248899
0.00260464
0.0026457
0.00270733
0.00279485
0.00296132
0.00314469
0.0033613
0.00354481
0.00373017
0.00380531
0.00378904
0.00359045
0.00322785
0.00134652
0.00034115
0.00266155
0.00262024
0.00183548
0.00221536
0.00317128
0.00210221
0.00152247
0.00221086
0.00262994
0.00246907
0.00245251
0.00236277
0.00231943
0.00238503
0.00250495
0.00258473
0.00265851
0.00267378
0.00280625
0.00288981
0.00312521
0.00324899
0.00347808
0.00356496
0.00366762
0.0034581
0.00298044
0.00175315
0.00106233
0.000378092
0.00264122
0.00262623
0.00181866
0.00224433
0.00317443
0.00210078
0.00150099
0.00221987
0.00263433
0.00247762
0.00244349
0.0023678
0.00230556
0.00239608
0.00248737
0.0026061
0.00262863
0.00269066
0.00275589
0.00290002
0.00304126
0.0032117
0.00333181
0.00341974
0.0033974
0.00328513
0.00304816
0.00265993
0.000797707
0.000419507
0.002617
0.00263112
0.00180087
0.00227505
0.00317863
0.00209797
0.00147955
0.00223133
0.00263998
0.00248248
0.00243976
0.00236519
0.00229731
0.00239258
0.00247646
0.0026042
0.00260603
0.00268045
0.00271303
0.00287934
0.0029701
0.00316175
0.00320172
0.00326604
0.00313313
0.00296245
0.00267578
0.00240549
0.000603396
0.000464257
0.00259014
0.00263452
0.00178338
0.00230556
0.003187
0.00209088
0.0014626
0.00222641
0.00266499
0.00246902
0.00246308
0.00234112
0.00232711
0.0023609
0.0025197
0.00255796
0.00264676
0.00261277
0.0027365
0.00278543
0.0029567
0.00303131
0.00313038
0.00307757
0.00292897
0.00246812
0.00173793
0.000749886
0.0011193
0.000513815
0.00255846
0.00263576
0.00176894
0.00233883
0.00319644
0.00208514
0.00143944
0.00223517
0.00266418
0.00248146
0.00245318
0.00234409
0.00231095
0.00236172
0.00250334
0.00255564
0.00262553
0.0025943
0.00270138
0.00274576
0.0028977
0.00294726
0.00301849
0.00294064
0.00276111
0.00223271
0.00139766
0.000326047
0.000769239
0.000569011
0.00252284
0.00263385
0.00174037
0.0023731
0.00321
0.00207868
0.00141633
0.00224361
0.00266973
0.00249665
0.00244091
0.00235711
0.00229048
0.00238236
0.0024799
0.00257945
0.00258642
0.00260283
0.00264024
0.00271924
0.00280656
0.00286573
0.00286148
0.00281053
0.00263593
0.00236658
0.00193634
0.00133937
-0.000806389
0.00062586
0.00249023
0.00262774
0.00173339
0.00238948
0.00322647
0.00206856
0.00139925
0.00224899
0.00268199
0.00250546
0.002435
0.00235865
0.00227885
0.00238521
0.00246773
0.00258058
0.00255935
0.00258345
0.00259027
0.00266722
0.00271823
0.00276123
0.00273828
0.00266944
0.00253777
0.00233299
0.00183422
0.000731602
-0.00301164
0.000691927
0.00244322
0.00261989
0.00170883
0.00245226
0.00324577
0.00205893
0.00136813
0.00225674
0.00268245
0.00251405
0.00243763
0.00234843
0.0022821
0.00236979
0.00247524
0.00256294
0.00256309
0.0025459
0.00256121
0.00259834
0.00264373
0.00266492
0.00262366
0.00251249
0.00228663
0.00190655
0.00135894
0.000569026
-0.00204235
0.000755171
0.00242381
0.0025999
0.00169986
0.00243856
0.00327989
0.00204246
0.00137762
0.00223157
0.00272445
0.0024825
0.00246513
0.0023154
0.00231033
0.00233288
0.00249325
0.00252524
0.00255668
0.00248875
0.00251136
0.00250917
0.00255843
0.00255466
0.00251814
0.00234792
0.00209665
0.00137846
0.000182272
-0.0014641
-0.00219341
0.00082925
0.0023436
0.00258212
0.001674
0.00251012
0.00329502
0.00203949
0.00133007
0.00227061
0.00271176
0.00251976
0.00243748
0.00234414
0.00227834
0.00235814
0.00246572
0.00254592
0.00252004
0.00246763
0.00243814
0.00243928
0.00244763
0.00242338
0.00233968
0.0021912
0.0019509
0.00160838
0.00113438
0.000196308
-0.00305464
0.000897335
0.00235286
0.00255132
0.0016601
0.00251288
0.00333007
0.00203329
0.00132956
0.00226005
0.00272817
0.00251263
0.00243491
0.00233422
0.00226861
0.00234423
0.0024542
0.00252691
0.00249329
0.00242335
0.00238172
0.00235718
0.00233155
0.00227376
0.00216633
0.00203974
0.00185782
0.00158259
0.000866827
-0.00081593
-0.0051879
0.000971016
0.00231692
0.002513
0.00164181
0.00254611
0.00335844
0.00202846
0.00129712
0.00228058
0.00273534
0.00252452
0.00243534
0.00233039
0.00226176
0.00233528
0.00245149
0.00251876
0.00246686
0.00237956
0.00231023
0.0022651
0.00221284
0.00212331
0.00198249
0.00181405
0.00159811
0.00128786
0.000550592
-0.00117134
-0.00559137
0.00105734
0.00227506
0.00247321
0.00161581
0.00258978
0.00338901
0.00201883
0.00128147
0.00227957
0.00274156
0.00252939
0.00243258
0.0023219
0.00225037
0.00232326
0.00243781
0.00250048
0.00243252
0.0023265
0.00223714
0.0021716
0.00209271
0.00197888
0.00178712
0.00151519
0.00113594
0.000685545
0.000133253
-0.000767832
-0.00402002
0.00110208
0.00231657
0.00242402
0.00161299
0.00254583
0.00345929
0.0019951
0.00130388
0.00225381
0.00278032
0.00252135
0.00244335
0.00230126
0.00224265
0.00230479
0.00242185
0.00247487
0.00238831
0.00226812
0.00216246
0.00206811
0.00196855
0.00180673
0.00162353
0.00128912
0.000742951
-0.000337181
-0.00182392
-0.00369884
-0.003414
0.00121389
0.00223431
0.0023862
0.00154866
0.00263312
0.00346062
0.00199994
0.00126317
0.00228737
0.00276968
0.0025471
0.00243133
0.00229956
0.00222405
0.00229208
0.00240738
0.00245441
0.00234763
0.00220555
0.00207842
0.00196497
0.00181297
0.00160165
0.00134447
0.0010831
0.000798725
0.000467728
9.27193e-05
-0.000409452
-0.00331656
0.0012442
0.00230466
0.00234098
0.00155505
0.00258689
0.00353411
0.00198982
0.0012854
0.00226728
0.00280346
0.00254084
0.00242806
0.00228809
0.00220951
0.00227142
0.00237001
0.00242358
0.00230003
0.00213421
0.00200362
0.00187
0.00174165
0.00155192
0.00132801
0.000904559
0.000151986
-0.00110495
-0.00272463
-0.00463303
-0.0040209
0.00134693
0.0022443
0.00230919
0.00147852
0.00265173
0.00354237
0.00200765
0.00123603
0.00229243
0.00280758
0.0025566
0.0024145
0.00227468
0.00219333
0.00224938
0.00234743
0.00238309
0.00224276
0.00206114
0.00191456
0.00178708
0.00164094
0.00143669
0.00116342
0.000829552
0.000483442
0.000154201
-0.000285184
-0.00151132
-0.00555655
0.00141163
0.00225
0.00228145
0.00144974
0.00267575
0.003564
0.00201289
0.00121184
0.00230726
0.00281969
0.00256884
0.00241104
0.00225352
0.00216876
0.00221522
0.00231303
0.00234286
0.00219725
0.00199817
0.00182992
0.00170048
0.00153802
0.00133866
0.00109137
0.00080802
0.000420393
-0.000179922
-0.00131923
-0.00354932
-0.00856979
0.00144719
0.00230542
0.00225356
0.00141884
0.00266555
0.00361504
0.00201013
0.00120455
0.00231347
0.00284545
0.0025818
0.00240871
0.00222643
0.00213678
0.00218727
0.00227057
0.00229582
0.00214131
0.00192774
0.00175068
0.00160919
0.0014393
0.00121697
0.000944983
0.000616591
0.000171864
-0.000520159
-0.00173901
-0.00406677
-0.00908441
0.00155438
0.00222469
0.00221974
0.00135656
0.00270587
0.00361605
0.00200001
0.00117135
0.00231599
0.00286064
0.00260009
0.00240698
0.00219614
0.00209411
0.00214288
0.00223602
0.00225704
0.00209318
0.00187451
0.00167777
0.00152916
0.00134171
0.00107786
0.000704585
0.000244287
-0.000288685
-0.000861074
-0.0016375
-0.00318097
-0.00782179
0.00153863
0.00240492
0.00218297
0.0013664
0.00263378
0.00373262
0.00195685
0.00119744
0.00229912
0.00290063
0.0026006
0.0024033
0.00215907
0.00204202
0.00209425
0.00217623
0.00220505
0.00204129
0.00182004
0.00162385
0.00144213
0.0012726
0.000974379
0.000574739
-0.000160315
-0.00127114
-0.00280722
-0.00465985
-0.00672366
-0.00578963
0.00165504
0.002308
0.00217117
0.00127127
0.00269377
0.00371316
0.00196975
0.00114455
0.00233739
0.0029172
0.00263804
0.00238876
0.00212305
0.00198909
0.00204168
0.00212687
0.00213757
0.00196648
0.00173773
0.0015318
0.00136598
0.00117712
0.000899511
0.000533618
0.000103188
-0.000369409
-0.000949422
-0.00189952
-0.00397224
-0.00921537
0.00166847
0.00236235
0.002171
0.00124701
0.00271197
0.00373116
0.0019754
0.00111543
0.00235081
0.00293323
0.00263727
0.00238122
0.00208987
0.00194239
0.00197957
0.00206231
0.00206995
0.00189162
0.00166435
0.00145373
0.00130051
0.00112244
0.000886368
0.000556419
0.000127038
-0.000545359
-0.00160853
-0.00341051
-0.00647509
-0.012332
0.0017086
0.00242314
0.00215596
0.00120965
0.00266852
0.00379026
0.00195906
0.00109393
0.00235444
0.00296163
0.00266277
0.00236664
0.00205387
0.00188166
0.00190523
0.00198943
0.00199475
0.00182319
0.00158956
0.00139146
0.00123257
0.00107212
0.000830014
0.000493973
7.69592e-06
-0.000687728
-0.001759
-0.00350032
-0.00661324
-0.0126367
0.00175129
0.00240515
0.00214987
0.00116335
0.00269391
0.00380617
0.00195263
0.00106504
0.00235141
0.00299122
0.00268058
0.00235076
0.00199999
0.00181062
0.00183448
0.00191617
0.00192575
0.00175155
0.00152129
0.00132008
0.00116224
0.000997694
0.000752008
0.000398419
-0.000106289
-0.000829319
-0.00194821
-0.00381847
-0.00716976
-0.0135124
0.00177267
0.00246575
0.00215866
0.00114252
0.00267688
0.00383514
0.0019543
0.00103622
0.00233455
0.00299986
0.00269562
0.0023367
0.00194844
0.00174639
0.00176656
0.00184802
0.00185543
0.00167943
0.00144774
0.00124381
0.00108012
0.000909116
0.000654819
0.00028843
-0.000239937
-0.00100743
-0.00221308
-0.00421998
-0.00773634
-0.0142309
0.00180693
0.00249463
0.00216129
0.00109671
0.00267116
0.00386422
0.00195583
0.00100705
0.00231042
0.00299738
0.00270663
0.00232656
0.00189915
0.0016784
0.00169702
0.0017786
0.00178355
0.0016043
0.00137076
0.00116211
0.000989148
0.000807525
0.00054248
0.000160844
-0.000398402
-0.00122159
-0.00250602
-0.00460549
-0.00821287
-0.0147503
0.00182641
0.00253514
0.0021719
0.0010644
0.00267737
0.00389043
0.0019564
0.00098208
0.00228382
0.00298089
0.00270542
0.0023182
0.00185454
0.00161126
0.00162577
0.00170704
0.00170925
0.0015257
0.00128988
0.00107685
0.000893087
0.000696219
0.000415205
1.38903e-05
-0.00057666
-0.00144671
-0.00278902
-0.00494875
-0.00859757
-0.0151515
0.00184873
0.00256945
0.00218989
0.00103153
0.00267081
0.00391726
0.00195545
0.000957703
0.0022547
0.00294859
0.00268784
0.00230776
0.00181635
0.00154761
0.00155275
0.00163227
0.00163096
0.00144199
0.00120356
0.000987223
0.000793252
0.000577657
0.000275008
-0.000148588
-0.000765983
-0.00166978
-0.00305163
-0.00524612
-0.00892243
-0.015497
0.00186661
0.00260391
0.00221281
0.000994778
0.00266559
0.0039473
0.0019548
0.000935462
0.00222581
0.00290907
0.00265571
0.00228945
0.00178165
0.00148852
0.00148103
0.0015565
0.00155044
0.00135237
0.0011095
0.000890277
0.000688799
0.000455862
0.000129781
-0.000317536
-0.00095775
-0.00188533
-0.00329042
-0.00550403
-0.00919198
-0.0157726
0.00188155
0.00263632
0.00224113
0.000960855
0.00265655
0.00397957
0.00195347
0.000910669
0.00219786
0.00286748
0.00261298
0.00226045
0.00174399
0.0014312
0.00141127
0.00148265
0.00147001
0.00125884
0.00100652
0.000783262
0.00057759
0.000332655
-1.45321e-05
-0.000485037
-0.00114542
-0.00209006
-0.00350977
-0.0057362
-0.00943478
-0.0160263
0.00189422
0.00266597
0.0022759
0.000929193
0.00264071
0.00401432
0.00195013
0.00087938
0.00217096
0.00282661
0.00256235
0.00222137
0.00170061
0.00137046
0.00134109
0.00140971
0.00139278
0.00116449
0.000896868
0.000665647
0.000457649
0.00020573
-0.000157009
-0.000647249
-0.0013254
-0.00228326
-0.00371374
-0.00594999
-0.0096563
-0.0162558
0.00190586
0.00269142
0.00231438
0.00090211
0.00261751
0.00405065
0.00194778
0.000841688
0.00214461
0.00278758
0.00250792
0.00217429
0.00165235
0.00130623
0.00126665
0.00133558
0.00131864
0.00107488
0.000785417
0.000541056
0.000328886
7.41268e-05
-0.000298498
-0.000803545
-0.00149636
-0.00246506
-0.0039046
-0.00614978
-0.00986352
-0.0164648
0.00191594
0.00271178
0.00235591
0.000883435
0.00258565
0.00408579
0.00194971
0.000796924
0.00211622
0.00275047
0.00245134
0.00212091
0.00160082
0.00123979
0.00118659
0.00125498
0.00124376
0.000990134
0.000677794
0.000413931
0.000194074
-6.24352e-05
-0.000440015
-0.000954595
-0.00165887
-0.00263637
-0.00408324
-0.00633568
-0.0100593
-0.0166724
0.00192675
0.00272715
0.00239682
0.000873452
0.00254607
0.00411633
0.00195955
0.000746471
0.00207975
0.00271581
0.00239348
0.0020617
0.00154579
0.00117417
0.00110356
0.00116648
0.00116206
0.000906928
0.00057669
0.000291441
5.82342e-05
-0.000201486
-0.000581854
-0.00110193
-0.00181442
-0.00279881
-0.00425051
-0.0065069
-0.0102364
-0.0168593
0.00193927
0.0027352
0.00243374
0.000873172
0.00250256
0.00413705
0.00197763
0.000693166
0.00203505
0.00268154
0.00233568
0.00199789
0.00148619
0.00110987
0.0010221
0.00107284
0.00107125
0.000820025
0.000479539
0.000175909
-7.32353e-05
-0.00033942
-0.000722556
-0.00124642
-0.00196481
-0.00295451
-0.00440856
-0.00666427
-0.0103888
-0.017003
0.00195236
0.0027415
0.00246289
0.000882407
0.00245918
0.00414452
0.00200153
0.000641806
0.00198127
0.00264755
0.00227962
0.00193114
0.00142063
0.00104463
0.000943772
0.000978002
0.00097385
0.000726041
0.000382492
6.52498e-05
-0.000198223
-0.000472822
-0.000859386
-0.00138677
-0.00210993
-0.0031037
-0.00455846
-0.00681237
-0.0105357
-0.0171551
0.00196604
0.00274521
0.00248386
0.000899444
0.00242058
0.00413677
0.00202739
0.000597303
0.00191869
0.00261258
0.00222661
0.00186283
0.00135054
0.000975132
0.000867261
0.000885248
0.000873693
0.000626597
0.00028264
-4.27005e-05
-0.000317999
-0.000600587
-0.000990969
-0.00152123
-0.00224825
-0.00324575
-0.00470192
-0.00695501
-0.0106772
-0.0172969
0.00198028
0.00274734
0.0024966
0.000919981
0.00239065
0.00411477
0.00204879
0.000563031
0.00185009
0.00257221
0.00217742
0.0017951
0.00127822
0.000900057
0.000790012
0.000794768
0.000774816
0.000525222
0.000180369
-0.000149939
-0.000434235
-0.000723797
-0.00111761
-0.00164931
-0.00237884
-0.00337948
-0.00483794
-0.00709125
-0.0108119
-0.0174291
0.00199352
0.00274944
0.00250189
0.000939908
0.00237083
0.0040827
0.00205831
0.00053941
0.00177987
0.00252351
0.0021311
0.00172893
0.00120579
0.000821336
0.000709955
0.00070546
0.000677763
0.000425158
7.79694e-05
-0.000255908
-0.00054774
-0.000842956
-0.00123996
-0.00177182
-0.00250201
-0.00350423
-0.0049646
-0.00721874
-0.0109392
-0.0175549
0.00200526
0.00275193
0.00250128
0.00095556
0.00235997
0.00404558
0.00205453
0.000524925
0.001714
0.0024659
0.00208519
0.00166434
0.00113423
0.000741625
0.000627167
0.00061681
0.000581431
0.000327039
-2.29852e-05
-0.000359265
-0.000657644
-0.000958122
-0.00135813
-0.00188966
-0.00261856
-0.00362034
-0.00508096
-0.00733546
-0.0110564
-0.0176761
0.00201534
0.00275479
0.00249765
0.000964294
0.00235556
0.0040104
0.00203764
0.000514979
0.00165807
0.00240139
0.00203659
0.00160169
0.00106289
0.000663131
0.000543124
0.000528908
0.000485891
0.000230092
-0.000121953
-0.000459742
-0.000762888
-0.0010686
-0.00147138
-0.00200289
-0.00272918
-0.0037289
-0.00518779
-0.00744119
-0.0111597
-0.0177774
0.002023
0.00275767
0.0024924
0.000965924
0.00235404
0.00397952
0.00200935
0.000502444
0.00161327
0.00233483
0.00198346
0.00154099
0.000991414
0.000586469
0.000459536
0.000442418
0.000392318
0.000134039
-0.000219171
-0.000557932
-0.000863322
-0.00117346
-0.00157864
-0.0021108
-0.00283439
-0.00383117
-0.00528696
-0.0075384
-0.0112554
-0.0178744
0.00202809
0.00276005
0.00248693
0.000961877
0.00235166
0.003954
0.00197422
0.000482871
0.00157701
0.00227151
0.00192567
0.00148163
0.000920631
0.00051119
0.00037769
0.000357624
0.000302003
3.98228e-05
-0.000314159
-0.000653759
-0.000959421
-0.0012725
-0.00167959
-0.00221284
-0.00293463
-0.00392857
-0.00538139
-0.00763096
-0.0113465
-0.0179653
0.00203043
0.00276141
0.00248163
0.000953676
0.00234557
0.00393314
0.0019377
0.000455383
0.00154479
0.00221449
0.00186493
0.00142265
0.000851739
0.000437106
0.000298103
0.000274701
0.000215533
-5.11489e-05
-0.000406239
-0.000746809
-0.00105188
-0.00136609
-0.00177443
-0.00230869
-0.00302991
-0.00402166
-0.00547213
-0.00772038
-0.0114378
-0.0180613
0.00203072
0.00276115
0.00247619
0.000942805
0.00233568
0.00391489
0.00190339
0.000422009
0.00151249
0.00216418
0.00180416
0.00136326
0.000785379
0.000364629
0.000221132
0.000194129
0.000132772
-0.000137951
-0.000494743
-0.000836292
-0.00114077
-0.00145466
-0.00186355
-0.00239845
-0.00312003
-0.00411059
-0.00555948
-0.00780618
-0.0115238
-0.018148
0.00202961
0.00275897
0.00247014
0.000930608
0.00232248
0.00389716
0.00187219
0.000385548
0.00147795
0.00211894
0.00174609
0.0013037
0.000721608
0.000294693
0.000147212
0.000116658
5.36223e-05
-0.000220078
-0.000578956
-0.000921492
-0.00122581
-0.00153874
-0.00194752
-0.00248251
-0.00320459
-0.00419466
-0.00564246
-0.00788751
-0.0116037
-0.018227
0.00202684
0.00275516
0.00246328
0.000917908
0.00230697
0.00387881
0.00184353
0.000348669
0.00144122
0.0020768
0.00169227
0.00124535
0.00066034
0.000228026
7.6672e-05
4.28733e-05
-2.18668e-05
-0.000297514
-0.000658404
-0.00100191
-0.00130643
-0.00161842
-0.00202654
-0.00256109
-0.00328324
-0.00427296
-0.0057197
-0.00796292
-0.0116771
-0.0182997
0.00202285
0.00274996
0.00245548
0.000904998
0.00229031
0.00385962
0.00181669
0.000313179
0.00140367
0.00203646
0.00164296
0.00118963
0.000601596
0.000164936
9.886e-06
-2.67536e-05
-9.32709e-05
-0.000370207
-0.000732681
-0.00107707
-0.00138194
-0.00169328
-0.00210051
-0.00263423
-0.0033558
-0.00434493
-0.00579059
-0.00803229
-0.011745
-0.0183673
0.00201783
0.00274372
0.00244683
0.000891951
0.00227343
0.00384001
0.00179112
0.000279903
0.00136686
0.0019975
0.00159761
0.00113761
0.000545919
0.00010573
-5.26413e-05
-9.17393e-05
-0.000159991
-0.000437953
-0.000801529
-0.00114664
-0.00145182
-0.00176278
-0.00216909
-0.00270176
-0.00342231
-0.0044106
-0.00585527
-0.00809592
-0.0118076
-0.01843
0.00201201
0.00273681
0.00243773
0.000878941
0.00225685
0.00382067
0.00176677
0.000249042
0.00133205
0.00196029
0.00155578
0.00108992
0.000494123
5.08038e-05
-0.000110434
-0.000151649
-0.000221454
-0.000500363
-0.000864669
-0.00121029
-0.00151562
-0.00182632
-0.00223187
-0.00276352
-0.00348297
-0.00447028
-0.00591404
-0.00815385
-0.0118649
-0.0184874
0.00200581
0.00272957
0.00242847
0.000866298
0.00224113
0.00380229
0.00174398
0.000220867
0.00130005
0.00192562
0.00151747
0.00104682
0.000446934
6.6395e-07
-0.000162983
-0.000205962
-0.000277087
-0.000556889
-0.000921733
-0.00126768
-0.00157304
-0.00188352
-0.0022885
-0.00281935
-0.00353786
-0.00452427
-0.00596717
-0.00820617
-0.0119167
-0.0185393
0.00199956
0.00272257
0.00241959
0.000854272
0.0022267
0.00378555
0.00172322
0.000195727
0.00127162
0.00189439
0.00148312
0.00100866
0.000405049
-4.39595e-05
-0.000209627
-0.000254041
-0.000326237
-0.000606856
-0.00097216
-0.00131834
-0.00162367
-0.00193396
-0.00233854
-0.00286882
-0.00358667
-0.00457242
-0.00601474
-0.0082532
-0.0119632
-0.0185858
0.00199364
0.00271609
0.00241159
0.00084365
0.00221413
0.00377099
0.00170505
0.000173972
0.00124736
0.00186763
0.00145357
0.000976056
0.000369363
-8.19719e-05
-0.000249261
-0.000294823
-0.000367819
-0.000649055
-0.00101473
-0.00136109
-0.00166641
-0.00197652
-0.0023808
-0.00291069
-0.00362815
-0.00461354
-0.00605565
-0.00829412
-0.0120045
-0.0186277
0.00198872
0.00271067
0.00240459
0.000834757
0.00220427
0.00375933
0.00169007
0.000156158
0.00122775
0.00184615
0.00142983
0.000949847
0.000340944
-0.000111961
-0.000280429
-0.000326852
-0.000400374
-0.000681934
-0.00104782
-0.00139432
-0.00169962
-0.00200955
-0.00241354
-0.00294311
-0.00366029
-0.00464548
-0.00608754
-0.00832614
-0.0120368
-0.0186604
0.00198499
0.00270647
0.00239892
0.00082724
0.00219652
0.0037503
0.00167731
0.000140102
0.00120952
0.00182576
0.00140729
0.000925044
0.000314363
-0.000139737
-0.000309496
-0.000357183
-0.000431655
-0.000713887
-0.00108028
-0.00142722
-0.0017328
-0.00204276
-0.00244652
-0.00297563
-0.00369218
-0.00467658
-0.0061178
-0.00835581
-0.0120669
-0.0186938
0.014448
0.0141389
0.0126435
0.0104697
0.00767456
0.00438455
0.000760624
-0.0028397
-0.00569583
-0.00715661
-0.00723339
-0.00647965
-0.00547216
-0.00453993
-0.00381201
-0.00330757
-0.00299217
-0.00281376
-0.00272389
-0.00268451
-0.00266966
-0.00266226
-0.00265336
-0.00263833
-0.0026168
-0.00258937
-0.0025585
-0.00252572
-0.00249336
-0.00246225
-0.00243364
-0.00240753
-0.00238429
-0.00236351
-0.00234511
-0.00232867
-0.00231408
-0.00230125
-0.00229
-0.00228052
-0.00227241
-0.00226598
-0.00226061
-0.00225676
-0.00225372
-0.00225208
-0.00225106
-0.00225128
-0.00225199
-0.00225377
-0.00225594
-0.00225901
-0.00226245
-0.00226668
-0.00227136
-0.00227669
-0.00228255
-0.00228894
-0.00229602
-0.00230349
-0.00231169
-0.00232006
-0.00232923
-0.00233857
-0.00234881
-0.0023591
-0.00237007
-0.00238094
-0.00239243
-0.00240395
-0.00241603
-0.00242828
-0.00244096
-0.00245398
-0.00246725
-0.002481
-0.00249484
-0.00250927
-0.00252358
-0.00253859
-0.00255338
-0.00256892
-0.00258413
-0.00259997
-0.00261554
-0.00263178
-0.00264799
-0.00266477
-0.00268167
-0.00269889
-0.00271636
-0.00273391
-0.00275187
-0.00276971
-0.00278815
-0.0028064
-0.00282539
-0.00284421
-0.00286381
-0.00288333
-0.00290356
-0.00292384
-0.00294457
-0.0029655
-0.00298658
-0.00300808
-0.00302955
-0.0030517
-0.00307369
-0.00309647
-0.00311897
-0.00314222
-0.00316514
-0.00318863
-0.00321189
-0.00323548
-0.00325907
-0.0032828
-0.00330685
-0.00333081
-0.00335526
-0.00337939
-0.00340405
-0.00342836
-0.00345322
-0.00347794
-0.0035031
-0.00352839
-0.00355379
-0.00357954
-0.00360504
-0.00363113
-0.00365676
-0.00368321
-0.00370918
-0.00373594
-0.00376227
-0.00378908
-0.00381561
-0.00384222
-0.00386892
-0.00389539
-0.00392236
-0.00394879
-0.00397586
-0.00400227
-0.0040293
-0.0040559
-0.00408292
-0.00410989
-0.00413688
-0.00416427
-0.00419127
-0.00421909
-0.00424628
-0.00427443
-0.00430188
-0.00433007
-0.00435766
-0.00438549
-0.00441308
-0.00444046
-0.00446813
-0.00449524
-0.00452293
-0.00454982
-0.00457718
-0.00460379
-0.0046306
-0.00465721
-0.00468384
-0.00471099
-0.00473785
-0.0047655
-0.0047925
-0.00482021
-0.00484735
-0.00487494
-0.00490233
-0.00492963
-0.00495693
-0.00498347
-0.00501007
-0.00503566
-0.0050613
-0.00508613
-0.00511075
-0.0051349
-0.00515845
-0.0051819
-0.00520464
-0.00522753