/*--------------------------------*- C++ -*----------------------------------*\
| =========                 |                                                 |
| \\      /  F ield         | OpenFOAM: The Open Source CFD Toolbox           |
|  \\    /   O peration     | Version:  v2006                                 |
|   \\  /    A nd           | Website:  www.openfoam.com                      |
|    \\/     M anipulation  |                                                 |
\*---------------------------------------------------------------------------*/
FoamFile
{
    version     2.0;
    format      ascii;
    class       surfaceScalarField;
    location    "0.7";
    object      phi;
}
// * * * * * * * * * * * * * * * * * * * * * * * * * * * * * * * * * * * * * //

dimensions      [0 3 -1 0 0 0 0];
oriented        oriented;


internalField   nonuniform List<scalar> 
52390
(
1.16932e-06
-3.25407e-07
1.16884e-06
3.31105e-07
1.17425e-06
-2.72576e-07
1.17454e-06
1.80166e-07
1.17736e-06
-2.20868e-07
1.17819e-06
1.51004e-07
1.18124e-06
-1.65038e-07
1.17979e-06
1.45834e-07
1.18223e-06
-1.20702e-07
1.18137e-06
1.12041e-07
1.18414e-06
-9.90439e-08
1.18365e-06
7.54027e-08
1.18645e-06
-8.85023e-08
1.18576e-06
5.389e-08
1.18854e-06
-7.26072e-08
1.18767e-06
4.17947e-08
1.19055e-06
-5.89126e-08
1.18949e-06
2.95355e-08
1.19236e-06
-5.06601e-08
1.19091e-06
2.06749e-08
1.1937e-06
-4.2324e-08
1.19167e-06
1.5511e-08
1.19452e-06
-3.3059e-08
1.19173e-06
1.1263e-08
1.19466e-06
-2.45672e-08
1.19103e-06
6.62951e-09
1.19359e-06
-1.37336e-08
1.1875e-06
3.24793e-09
1.1831e-06
1.77168e-08
2.29721e-08
1.15466e-06
1.22645e-06
-3.27591e-07
1.22628e-06
3.3127e-07
1.23288e-06
-2.79179e-07
1.23382e-06
1.79227e-07
1.23641e-06
-2.23456e-07
1.23758e-06
1.49839e-07
1.24111e-06
-1.68576e-07
1.23994e-06
1.47011e-07
1.24183e-06
-1.22593e-07
1.2416e-06
1.12264e-07
1.24362e-06
-1.01062e-07
1.24392e-06
7.51082e-08
1.24574e-06
-9.03205e-08
1.24618e-06
5.3441e-08
1.24748e-06
-7.39068e-08
1.24827e-06
4.10109e-08
1.24904e-06
-5.96849e-08
1.25035e-06
2.82247e-08
1.25026e-06
-5.05655e-08
1.25216e-06
1.87719e-08
1.25082e-06
-4.09842e-08
1.25351e-06
1.28197e-08
1.25061e-06
-3.01599e-08
1.2543e-06
7.57122e-09
1.24948e-06
-1.97457e-08
1.25413e-06
1.97917e-09
1.24714e-06
-6.7404e-09
1.25053e-06
-1.43752e-10
1.23876e-06
2.94895e-08
3.82576e-08
1.22347e-06
1.28482e-06
-3.29631e-07
1.28774e-06
3.28358e-07
1.29316e-06
-2.84606e-07
1.2965e-06
1.75892e-07
1.29747e-06
-2.24432e-07
1.30111e-06
1.462e-07
1.30261e-06
-1.70069e-07
1.30386e-06
1.45755e-07
1.30322e-06
-1.21946e-07
1.30542e-06
1.10055e-07
1.30454e-06
-1.00183e-07
1.30736e-06
7.22902e-08
1.30607e-06
-8.9031e-08
1.30925e-06
5.02605e-08
1.3073e-06
-7.19544e-08
1.31092e-06
3.73963e-08
1.30832e-06
-5.70912e-08
1.31238e-06
2.41718e-08
1.309e-06
-4.71881e-08
1.31337e-06
1.43994e-08
1.30917e-06
-3.67841e-08
1.31367e-06
8.32253e-09
1.30884e-06
-2.53294e-08
1.31304e-06
3.37151e-09
1.30796e-06
-1.46645e-08
1.31097e-06
-1.03926e-09
1.30662e-06
-2.38457e-09
1.30431e-06
2.16838e-09
1.30149e-06
3.23082e-08
6.0702e-08
1.27904e-06
1.34519e-06
-3.30717e-07
1.35072e-06
3.22824e-07
1.35446e-06
-2.88342e-07
1.36006e-06
1.70289e-07
1.35914e-06
-2.23509e-07
1.36503e-06
1.40307e-07
1.3645e-06
-1.69537e-07
1.36774e-06
1.42518e-07
1.36483e-06
-1.19042e-07
1.36865e-06
1.06235e-07
1.36554e-06
-9.70712e-08
1.36968e-06
6.81528e-08
1.36645e-06
-8.58054e-08
1.37074e-06
4.59768e-08
1.36733e-06
-6.85461e-08
1.37161e-06
3.31105e-08
1.36808e-06
-5.35568e-08
1.3722e-06
2.00481e-08
1.36853e-06
-4.35121e-08
1.37237e-06
1.05583e-08
1.36862e-06
-3.3036e-08
1.37198e-06
4.96562e-09
1.36833e-06
-2.16868e-08
1.3708e-06
9.10557e-10
1.36757e-06
-1.14341e-08
1.3682e-06
-1.67025e-09
1.3664e-06
-5.85529e-10
1.36126e-06
7.30675e-09
1.36082e-06
3.27501e-08
8.38605e-08
1.33766e-06
1.40792e-06
-3.30278e-07
1.41488e-06
3.15864e-07
1.41691e-06
-2.90373e-07
1.42375e-06
1.63447e-07
1.42125e-06
-2.21011e-07
1.4283e-06
1.33261e-07
1.42645e-06
-1.67691e-07
1.43046e-06
1.38509e-07
1.42639e-06
-1.14972e-07
1.43049e-06
1.0213e-07
1.42653e-06
-9.31067e-08
1.4306e-06
6.40782e-08
1.42699e-06
-8.21879e-08
1.43102e-06
4.19403e-08
1.42773e-06
-6.52552e-08
1.43151e-06
2.93284e-08
1.42843e-06
-5.04761e-08
1.43181e-06
1.6672e-08
1.42882e-06
-4.05227e-08
1.43183e-06
7.54939e-09
1.42891e-06
-3.01167e-08
1.43146e-06
2.41556e-09
1.42866e-06
-1.88873e-08
1.43036e-06
-7.89611e-10
1.42789e-06
-8.95954e-09
1.42781e-06
-1.5915e-09
1.42619e-06
1.03187e-09
1.4218e-06
1.16976e-08
1.41892e-06
3.56271e-08
1.09777e-07
1.39301e-06
1.47356e-06
-3.28167e-07
1.4807e-06
3.08725e-07
1.48147e-06
-2.91144e-07
1.48832e-06
1.56601e-07
1.48485e-06
-2.17541e-07
1.49188e-06
1.26231e-07
1.48948e-06
-1.65292e-07
1.49325e-06
1.34736e-07
1.48895e-06
-1.10671e-07
1.49256e-06
9.85182e-08
1.48866e-06
-8.91982e-08
1.49216e-06
6.0572e-08
1.48883e-06
-7.88589e-08
1.49239e-06
3.83863e-08
1.48957e-06
-6.2436e-08
1.49294e-06
2.59561e-08
1.49034e-06
-4.78732e-08
1.49337e-06
1.36425e-08
1.49078e-06
-3.79366e-08
1.49354e-06
4.78523e-09
1.49095e-06
-2.7521e-08
1.49335e-06
1.77492e-11
1.49079e-06
-1.63289e-08
1.49239e-06
-2.39391e-09
1.48993e-06
-6.49209e-09
1.49023e-06
-1.89734e-09
1.48724e-06
4.02574e-09
1.4851e-06
1.38374e-08
1.48396e-06
3.6767e-08
6.32077e-08
1.53053e-06
1.54262e-06
-3.24575e-07
1.54919e-06
3.02156e-07
1.54926e-06
-2.91214e-07
1.5553e-06
1.50563e-07
1.55131e-06
-2.13553e-07
1.55769e-06
1.19859e-07
1.55506e-06
-1.62669e-07
1.55824e-06
1.31557e-07
1.55404e-06
-1.06465e-07
1.55711e-06
9.54484e-08
1.55344e-06
-8.55294e-08
1.55656e-06
5.74471e-08
1.55347e-06
-7.57637e-08
1.55684e-06
3.50192e-08
1.55423e-06
-5.98309e-08
1.55757e-06
2.26164e-08
1.55512e-06
-4.54229e-08
1.55819e-06
1.05702e-08
1.55569e-06
-3.54379e-08
1.5585e-06
1.97674e-09
1.55598e-06
-2.50032e-08
1.55836e-06
-2.36073e-09
1.55595e-06
-1.39112e-08
1.55738e-06
-3.82956e-09
1.55528e-06
-4.39339e-09
1.55472e-06
-1.33311e-09
1.55351e-06
5.23682e-09
1.54859e-06
1.87515e-08
1.54431e-06
4.10456e-08
9.41571e-08
1.51336e-06
1.61538e-06
-3.19827e-07
1.62128e-06
2.96256e-07
1.62103e-06
-2.90964e-07
1.62606e-06
1.45532e-07
1.6217e-06
-2.09186e-07
1.62734e-06
1.14216e-07
1.62442e-06
-1.59755e-07
1.62714e-06
1.28844e-07
1.62293e-06
-1.02257e-07
1.62574e-06
9.26359e-08
1.62215e-06
-8.19428e-08
1.62523e-06
5.43725e-08
1.62213e-06
-7.26637e-08
1.62556e-06
3.15824e-08
1.62291e-06
-5.71727e-08
1.6264e-06
1.91247e-08
1.6239e-06
-4.29272e-08
1.62713e-06
7.3448e-09
1.62461e-06
-3.29153e-08
1.62746e-06
-8.81333e-10
1.62498e-06
-2.25236e-08
1.62727e-06
-4.64451e-09
1.62501e-06
-1.16503e-08
1.62616e-06
-4.98539e-09
1.62441e-06
-2.64243e-09
1.62319e-06
-1.15582e-10
1.62271e-06
5.72452e-09
1.61757e-06
2.38853e-08
1.6128e-06
4.58156e-08
1.308e-07
1.57616e-06
1.69195e-06
-3.14206e-07
1.69751e-06
2.90697e-07
1.69705e-06
-2.90505e-07
1.7013e-06
1.41285e-07
1.6965e-06
-2.04384e-07
1.70165e-06
1.09069e-07
1.69824e-06
-1.56354e-07
1.70077e-06
1.26315e-07
1.69637e-06
-9.78571e-08
1.69922e-06
8.97922e-08
1.69554e-06
-7.8266e-08
1.69879e-06
5.11269e-08
1.69552e-06
-6.93955e-08
1.69913e-06
2.79673e-08
1.69628e-06
-5.4323e-08
1.69996e-06
1.54526e-08
1.69734e-06
-4.03097e-08
1.7007e-06
3.98673e-09
1.69812e-06
-3.03392e-08
1.70098e-06
-3.73822e-09
1.69851e-06
-2.00588e-08
1.70068e-06
-6.80894e-09
1.69843e-06
-9.40189e-09
1.69971e-06
-6.26472e-09
1.69697e-06
9.8918e-11
1.69783e-06
-9.75342e-10
1.69261e-06
1.09457e-08
1.69717e-06
1.93194e-08
1.69823e-06
4.47535e-08
8.12217e-08
1.74781e-06
1.77242e-06
-3.07907e-07
1.77807e-06
2.85049e-07
1.77732e-06
-2.89757e-07
1.78115e-06
1.37461e-07
1.77582e-06
-1.99053e-07
1.78076e-06
1.04125e-07
1.77675e-06
-1.52342e-07
1.77935e-06
1.23712e-07
1.77464e-06
-9.31475e-08
1.77772e-06
8.67187e-08
1.77385e-06
-7.44003e-08
1.77738e-06
4.75998e-08
1.77387e-06
-6.58875e-08
1.77769e-06
2.41472e-08
1.7746e-06
-5.12387e-08
1.77842e-06
1.16349e-08
1.77568e-06
-3.75684e-08
1.77909e-06
5.7831e-10
1.77652e-06
-2.77657e-08
1.77923e-06
-6.45511e-09
1.77691e-06
-1.77318e-08
1.77874e-06
-8.64466e-09
1.77676e-06
-7.42465e-09
1.77759e-06
-7.08619e-09
1.77512e-06
2.56462e-09
1.77578e-06
-1.63875e-09
1.7697e-06
1.70279e-08
1.77617e-06
1.28512e-08
1.77781e-06
4.31119e-08
2.52767e-08
1.83376e-06
1.85689e-06
-3.01053e-07
1.86296e-06
2.78982e-07
1.86175e-06
-2.88547e-07
1.86548e-06
1.33733e-07
1.85957e-06
-1.93145e-07
1.86456e-06
9.91371e-08
1.85992e-06
-1.47698e-07
1.86279e-06
1.20839e-07
1.85772e-06
-8.80832e-08
1.86115e-06
8.32886e-08
1.85705e-06
-7.02988e-08
1.86091e-06
4.37437e-08
1.85714e-06
-6.21197e-08
1.86116e-06
2.01292e-08
1.85785e-06
-4.79302e-08
1.86176e-06
7.72943e-09
1.85893e-06
-3.47418e-08
1.86229e-06
-2.78174e-09
1.8598e-06
-2.52724e-08
1.86225e-06
-8.90513e-09
1.86018e-06
-1.56664e-08
1.86151e-06
-9.97725e-09
1.86004e-06
-5.95088e-09
1.85994e-06
-6.98888e-09
1.85887e-06
3.63787e-09
1.85693e-06
2.99108e-10
1.85527e-06
1.86884e-08
1.85029e-06
1.78328e-08
1.84052e-06
5.2882e-08
6.12125e-08
1.80458e-06
1.94552e-06
-2.93737e-07
1.95219e-06
2.72319e-07
1.95032e-06
-2.86683e-07
1.9542e-06
1.29856e-07
1.9477e-06
-1.86648e-07
1.95292e-06
9.3915e-08
1.94769e-06
-1.42464e-07
1.95098e-06
1.17552e-07
1.94555e-06
-8.26579e-08
1.94942e-06
7.9422e-08
1.94506e-06
-6.59375e-08
1.94925e-06
3.95475e-08
1.94523e-06
-5.8096e-08
1.94942e-06
1.59435e-08
1.94592e-06
-4.44387e-08
1.94984e-06
3.8158e-09
1.947e-06
-3.19023e-08
1.95019e-06
-5.97256e-09
1.94788e-06
-2.29627e-08
1.94994e-06
-1.09646e-08
1.94824e-06
-1.39673e-08
1.94899e-06
-1.07269e-08
1.94805e-06
-5.01225e-09
1.94713e-06
-6.07108e-09
1.94693e-06
3.84113e-09
1.94344e-06
3.78318e-09
1.94447e-06
1.76609e-08
1.93334e-06
2.89662e-08
1.92879e-06
5.74334e-08
9.25041e-08
1.8975e-06
2.03849e-06
-2.86034e-07
2.04581e-06
2.64995e-07
2.0431e-06
-2.83977e-07
2.04731e-06
1.25651e-07
2.04023e-06
-1.79564e-07
2.04583e-06
8.8308e-08
2.04008e-06
-1.36709e-07
2.04389e-06
1.13744e-07
2.03811e-06
-7.6884e-08
2.04246e-06
7.50759e-08
2.03783e-06
-6.13078e-08
2.04234e-06
3.50334e-08
2.03809e-06
-5.38399e-08
2.04238e-06
1.16527e-08
2.03877e-06
-4.08347e-08
2.04258e-06
7.43408e-12
2.03983e-06
-2.91556e-08
2.04271e-06
-8.84791e-09
2.04071e-06
-2.096e-08
2.04225e-06
-1.25078e-08
2.04101e-06
-1.27223e-08
2.04116e-06
-1.08793e-08
2.0406e-06
-4.45928e-09
2.03936e-06
-4.8257e-09
2.03877e-06
4.4269e-09
2.03573e-06
6.82247e-09
2.03471e-06
1.86896e-08
2.02771e-06
3.59633e-08
2.01625e-06
6.8895e-08
1.25754e-07
1.983e-06
2.13597e-06
-2.78006e-07
2.14397e-06
2.57002e-07
2.14025e-06
-2.80259e-07
2.14492e-06
1.20981e-07
2.13725e-06
-1.719e-07
2.14336e-06
8.21973e-08
2.13716e-06
-1.30506e-07
2.14157e-06
1.09338e-07
2.13547e-06
-7.07857e-08
2.14031e-06
7.02366e-08
2.13542e-06
-5.64165e-08
2.1402e-06
3.02512e-08
2.13575e-06
-4.9392e-08
2.14006e-06
7.34501e-09
2.13642e-06
-3.71991e-08
2.14001e-06
-3.57496e-09
2.13745e-06
-2.66005e-08
2.13989e-06
-1.12826e-08
2.13827e-06
-1.93469e-08
2.13924e-06
-1.3477e-08
2.13842e-06
-1.18998e-08
2.13818e-06
-1.06363e-08
2.13749e-06
-3.77261e-09
2.13677e-06
-4.10674e-09
2.13475e-06
6.44966e-09
2.13304e-06
8.53172e-09
2.12745e-06
2.42803e-08
2.13353e-06
2.98862e-08
2.15725e-06
4.51667e-08
5.07185e-08
2.23229e-06
2.23818e-06
-2.69701e-07
2.24684e-06
2.48347e-07
2.24196e-06
-2.75377e-07
2.24719e-06
1.15742e-07
2.23895e-06
-1.63658e-07
2.24566e-06
7.54947e-08
2.23908e-06
-1.23929e-07
2.24413e-06
1.04282e-07
2.23775e-06
-6.44009e-08
2.24307e-06
6.49179e-08
2.23795e-06
-5.12969e-08
2.24292e-06
2.52829e-08
2.23835e-06
-4.48298e-08
2.24254e-06
3.15614e-09
2.23901e-06
-3.36648e-08
2.24218e-06
-6.75042e-09
2.23998e-06
-2.43996e-08
2.24179e-06
-1.30876e-08
2.24073e-06
-1.82844e-08
2.24094e-06
-1.3686e-08
2.24075e-06
-1.17144e-08
2.23965e-06
-9.53411e-09
2.23983e-06
-3.95768e-09
2.23772e-06
-1.9929e-09
2.23725e-06
6.92117e-09
2.23394e-06
1.18376e-08
2.23161e-06
2.66117e-08
2.22462e-06
3.68771e-08
2.20861e-06
6.11721e-08
8.1536e-08
2.1778e-06
2.34532e-06
-2.61147e-07
2.35464e-06
2.39028e-07
2.34847e-06
-2.69206e-07
2.35435e-06
1.09863e-07
2.34553e-06
-1.54841e-07
2.35288e-06
6.81435e-08
2.346e-06
-1.17043e-07
2.35173e-06
9.8551e-08
2.34511e-06
-5.7779e-08
2.35087e-06
5.91571e-08
2.34558e-06
-4.6008e-08
2.35063e-06
2.02331e-08
2.34606e-06
-4.0261e-08
2.34997e-06
-7.57617e-10
2.34669e-06
-3.03802e-08
2.34928e-06
-9.34483e-09
2.34758e-06
-2.26959e-08
2.34862e-06
-1.41247e-08
2.34818e-06
-1.78494e-08
2.34757e-06
-1.30774e-08
2.34805e-06
-1.21884e-08
2.34596e-06
-7.44398e-09
2.34733e-06
-5.32983e-09
2.3433e-06
2.03992e-09
2.34516e-06
5.05475e-09
2.3393e-06
1.76957e-08
2.34028e-06
2.56379e-08
2.32549e-06
5.16687e-08
2.31604e-06
7.06202e-08
1.05782e-07
2.29179e-06
2.45761e-06
-2.52358e-07
2.46761e-06
2.29024e-07
2.46007e-06
-2.61664e-07
2.46662e-06
1.03312e-07
2.45724e-06
-1.45462e-07
2.46525e-06
6.01296e-08
2.45812e-06
-1.09907e-07
2.46451e-06
9.21554e-08
2.45773e-06
-5.09937e-08
2.46386e-06
5.30294e-08
2.4585e-06
-4.06497e-08
2.4635e-06
1.52341e-08
2.45905e-06
-3.58168e-08
2.46255e-06
-4.25618e-09
2.45963e-06
-2.74581e-08
2.46156e-06
-1.12722e-08
2.46036e-06
-2.15009e-08
2.46072e-06
-1.44816e-08
2.46062e-06
-1.77518e-08
2.45975e-06
-1.22018e-08
2.45993e-06
-1.23777e-08
2.45855e-06
-6.06394e-09
2.45829e-06
-5.0672e-09
2.4563e-06
4.03429e-09
2.4549e-06
6.45037e-09
2.45181e-06
2.07908e-08
2.44931e-06
2.81353e-08
2.44122e-06
5.97602e-08
2.42307e-06
8.87653e-08
1.39899e-07
2.38896e-06
2.57527e-06
-2.43332e-07
2.58599e-06
2.18298e-07
2.57705e-06
-2.52721e-07
2.58427e-06
9.6092e-08
2.57435e-06
-1.35539e-07
2.583e-06
5.14795e-08
2.57567e-06
-1.02574e-07
2.58268e-06
8.51459e-08
2.57582e-06
-4.41362e-08
2.5822e-06
4.66448e-08
2.57691e-06
-3.53579e-08
2.5817e-06
1.04452e-08
2.57754e-06
-3.16606e-08
2.58048e-06
-7.19642e-09
2.57804e-06
-2.50099e-08
2.57925e-06
-1.24898e-08
2.57853e-06
-2.07781e-08
2.57835e-06
-1.43032e-08
2.57833e-06
-1.77295e-08
2.57757e-06
-1.14468e-08
2.57692e-06
-1.1723e-08
2.57696e-06
-6.10839e-09
2.5742e-06
-2.30372e-09
2.57535e-06
2.88198e-09
2.56992e-06
1.18881e-08
2.56926e-06
2.1451e-08
2.56139e-06
3.6e-08
2.57844e-06
4.27117e-08
2.61426e-06
5.29481e-08
5.30671e-08
2.70109e-06
2.69854e-06
-2.34047e-07
2.71005e-06
2.06796e-07
2.69973e-06
-2.42404e-07
2.70759e-06
8.8233e-08
2.69715e-06
-1.25101e-07
2.70637e-06
4.2259e-08
2.69889e-06
-9.50931e-08
2.70642e-06
7.76191e-08
2.6996e-06
-3.73231e-08
2.70608e-06
4.01655e-08
2.70104e-06
-3.03201e-08
2.70541e-06
6.07635e-09
2.70177e-06
-2.80175e-08
2.70396e-06
-9.38631e-09
2.70217e-06
-2.32228e-08
2.70254e-06
-1.28603e-08
2.70244e-06
-2.06753e-08
2.70151e-06
-1.33697e-08
2.70203e-06
-1.82489e-08
2.70042e-06
-9.84183e-09
2.70081e-06
-1.21141e-08
2.69898e-06
-4.27954e-09
2.69863e-06
-1.94574e-09
2.69639e-06
5.12147e-09
2.69452e-06
1.37571e-08
2.69162e-06
2.43494e-08
2.68812e-06
3.95036e-08
2.67908e-06
5.17516e-08
2.65793e-06
7.40958e-08
8.78464e-08
2.62315e-06
2.82768e-06
-2.24458e-07
2.84001e-06
1.94462e-07
2.8284e-06
-2.30789e-07
2.83685e-06
7.97804e-08
2.82593e-06
-1.14177e-07
2.83563e-06
3.25528e-08
2.82803e-06
-8.74896e-08
2.83596e-06
6.96898e-08
2.82929e-06
-3.06599e-08
2.83572e-06
3.37422e-08
2.83105e-06
-2.5649e-08
2.83491e-06
2.20925e-09
2.83186e-06
-2.49632e-08
2.8333e-06
-1.08219e-08
2.83215e-06
-2.20746e-08
2.83181e-06
-1.25188e-08
2.83214e-06
-2.10134e-08
2.83067e-06
-1.18984e-08
2.83165e-06
-1.92241e-08
2.82907e-06
-7.26479e-09
2.83086e-06
-1.39035e-08
2.82647e-06
1.08341e-10
2.82961e-06
-5.0809e-09
2.8231e-06
1.16276e-08
2.82671e-06
1.01439e-08
2.81897e-06
3.20944e-08
2.82006e-06
3.84131e-08
2.79945e-06
7.236e-08
2.79013e-06
8.34203e-08
1.12664e-07
2.76531e-06
2.96296e-06
-2.1452e-07
2.97614e-06
1.81276e-07
2.96338e-06
-2.1802e-07
2.97233e-06
7.08219e-08
2.96099e-06
-1.02836e-07
2.97104e-06
2.2511e-08
2.96339e-06
-7.98418e-08
2.9715e-06
6.15742e-08
2.96522e-06
-2.43814e-08
2.97124e-06
2.7727e-08
2.96735e-06
-2.17541e-08
2.97026e-06
-7.02563e-10
2.96823e-06
-2.29336e-08
2.9686e-06
-1.11932e-08
2.96826e-06
-2.17313e-08
2.96733e-06
-1.15896e-08
2.96776e-06
-2.14511e-08
2.96646e-06
-1.05979e-08
2.96676e-06
-1.95249e-08
2.96526e-06
-5.76105e-09
2.96516e-06
-1.38003e-08
2.9632e-06
2.0644e-09
2.96281e-06
-4.6924e-09
2.95967e-06
1.47674e-08
2.95801e-06
1.1811e-08
2.95543e-06
3.46696e-08
2.95269e-06
4.11494e-08
2.94168e-06
8.33714e-08
2.91616e-06
1.08938e-07
1.50468e-07
2.87836e-06
3.10469e-06
-2.04205e-07
3.11872e-06
1.67251e-07
3.10497e-06
-2.04277e-07
3.11435e-06
6.14459e-08
3.10267e-06
-9.11573e-08
3.1129e-06
1.22808e-08
3.10527e-06
-7.221e-08
3.11342e-06
5.34206e-08
3.10757e-06
-1.85272e-08
3.11318e-06
2.21174e-08
3.10984e-06
-1.8415e-08
3.11228e-06
-3.14773e-09
3.11046e-06
-2.11081e-08
3.11108e-06
-1.18199e-08
3.10974e-06
-2.03883e-08
3.11057e-06
-1.2413e-08
3.10821e-06
-1.90974e-08
3.11059e-06
-1.29781e-08
3.10588e-06
-1.48093e-08
3.11057e-06
-1.0452e-08
3.1027e-06
-5.93362e-09
3.11e-06
-5.23803e-09
3.09946e-06
5.84649e-09
3.10745e-06
6.78412e-09
3.09505e-06
2.42125e-08
3.0985e-06
3.12146e-08
3.0879e-06
5.17541e-08
3.12071e-06
5.05598e-08
3.16672e-06
6.29222e-08
5.8513e-08
3.25868e-06
3.25321e-06
-1.93506e-07
3.26801e-06
1.52449e-07
3.2535e-06
-1.89761e-07
3.26318e-06
5.17607e-08
3.2513e-06
-7.92781e-08
3.2615e-06
2.0865e-09
3.25405e-06
-6.47618e-08
3.26196e-06
4.55116e-08
3.25684e-06
-1.34084e-08
3.26158e-06
1.73749e-08
3.25936e-06
-1.61981e-08
3.26055e-06
-4.33626e-09
3.26009e-06
-2.06422e-08
3.25917e-06
-1.09062e-08
3.2597e-06
-2.09169e-08
3.25802e-06
-1.07339e-08
3.2591e-06
-2.01724e-08
3.25668e-06
-1.05598e-08
3.25844e-06
-1.6573e-08
3.25438e-06
-6.38944e-09
3.25752e-06
-9.0698e-09
3.25146e-06
8.19117e-10
3.25499e-06
2.31709e-09
3.24775e-06
1.40195e-08
3.25162e-06
2.03412e-08
3.24533e-06
3.75062e-08
3.24679e-06
5.02967e-08
3.22602e-06
7.1335e-08
3.20249e-06
8.64509e-08
1.00264e-07
3.16074e-06
3.40885e-06
-1.8242e-07
3.42435e-06
1.36946e-07
3.40926e-06
-1.74674e-07
3.41911e-06
4.19096e-08
3.40721e-06
-6.73796e-08
3.41711e-06
-7.80546e-09
3.41004e-06
-5.77004e-08
3.41743e-06
3.8123e-08
3.41334e-06
-9.31844e-09
3.41685e-06
1.38657e-08
3.4161e-06
-1.54476e-08
3.41574e-06
-3.97593e-09
3.41681e-06
-2.17122e-08
3.41438e-06
-8.47751e-09
3.41643e-06
-2.29593e-08
3.41312e-06
-7.43255e-09
3.4159e-06
-2.29459e-08
3.4116e-06
-6.26092e-09
3.41525e-06
-2.02235e-08
3.40929e-06
-4.30006e-10
3.4141e-06
-1.3885e-08
3.4061e-06
8.82237e-09
3.41191e-06
-3.49033e-09
3.40256e-06
2.33694e-08
3.40765e-06
1.52493e-08
3.40123e-06
4.39256e-08
3.40601e-06
4.55175e-08
3.38153e-06
9.58116e-08
3.35451e-06
1.13474e-07
1.44618e-07
3.31016e-06
3.57198e-06
-1.70985e-07
3.58805e-06
1.20868e-07
3.57263e-06
-1.59252e-07
3.58247e-06
3.2075e-08
3.57071e-06
-5.56272e-08
3.58014e-06
-1.7233e-08
3.57345e-06
-5.10128e-08
3.58057e-06
3.10107e-08
3.57674e-06
-5.48697e-09
3.58043e-06
1.01679e-08
3.57879e-06
-1.38007e-08
3.58038e-06
-5.56965e-09
3.57821e-06
-1.95422e-08
3.58049e-06
-1.07599e-08
3.57629e-06
-1.87533e-08
3.58085e-06
-1.20001e-08
3.57372e-06
-1.58095e-08
3.58163e-06
-1.41724e-08
3.57027e-06
-8.8622e-09
3.58221e-06
-1.23747e-08
3.56648e-06
1.84804e-09
3.5819e-06
-6.59582e-09
3.56321e-06
1.5193e-08
3.57951e-06
7.07476e-09
3.55906e-06
3.57011e-08
3.56934e-06
3.36398e-08
3.55511e-06
5.97487e-08
3.60356e-06
4.73669e-08
3.65552e-06
6.15112e-08
5.69943e-08
3.74314e-06
3.743e-06
-1.59275e-07
3.75946e-06
1.04401e-07
3.74398e-06
-1.43771e-07
3.75358e-06
2.24767e-08
3.74225e-06
-4.42947e-08
3.75081e-06
-2.58008e-08
3.7449e-06
-4.50998e-08
3.75122e-06
2.46919e-08
3.74844e-06
-2.71049e-09
3.75098e-06
7.62811e-09
3.75087e-06
-1.36826e-08
3.7501e-06
-4.80591e-09
3.75164e-06
-2.1076e-08
3.74841e-06
-7.53356e-09
3.75194e-06
-2.22883e-08
3.74624e-06
-6.29125e-09
3.7522e-06
-2.17775e-08
3.74389e-06
-5.86096e-09
3.75182e-06
-1.67917e-08
3.74186e-06
-2.41688e-09
3.74995e-06
-6.23484e-09
3.73915e-06
4.20427e-09
3.74645e-06
7.89235e-09
3.73669e-06
1.68368e-08
3.74452e-06
2.78635e-08
3.73752e-06
4.06399e-08
3.73725e-06
6.00208e-08
3.71389e-06
7.07235e-08
3.68344e-06
9.19625e-08
1.06182e-07
3.63425e-06
3.92225e-06
-1.47341e-07
3.93894e-06
8.7716e-08
3.92372e-06
-1.28557e-07
3.93275e-06
1.34512e-08
3.9222e-06
-3.37401e-08
3.92942e-06
-3.3028e-08
3.92467e-06
-4.03425e-08
3.92995e-06
1.94079e-08
3.9282e-06
-9.62157e-10
3.93005e-06
5.77635e-09
3.93042e-06
-1.40491e-08
3.92908e-06
-3.46189e-09
3.93161e-06
-2.36121e-08
3.92681e-06
-2.72723e-09
3.9327e-06
-2.81849e-08
3.92377e-06
2.6457e-09
3.93384e-06
-3.18497e-08
3.92043e-06
7.54231e-09
3.93469e-06
-3.1044e-08
3.9167e-06
1.55705e-08
3.93476e-06
-2.42924e-08
3.913e-06
2.59594e-08
3.93344e-06
-1.25447e-08
3.91105e-06
3.92241e-08
3.93352e-06
5.39962e-09
3.915e-06
5.91587e-08
3.93581e-06
3.92057e-08
3.89003e-06
1.16502e-07
3.85752e-06
1.24471e-07
1.5398e-07
3.80973e-06
4.11017e-06
-1.35257e-07
4.12687e-06
7.101e-08
4.11222e-06
-1.13908e-07
4.1205e-06
5.17739e-09
4.11065e-06
-2.38909e-08
4.117e-06
-3.93774e-08
4.11235e-06
-3.56995e-08
4.11858e-06
1.31824e-08
4.11427e-06
3.35071e-09
4.12075e-06
-7.07777e-10
4.11416e-06
-7.46229e-09
4.12264e-06
-1.19392e-08
4.11227e-06
-1.32381e-08
4.12381e-06
-1.42684e-08
4.10949e-06
-1.38661e-08
4.12464e-06
-1.25081e-08
4.10699e-06
-1.41952e-08
4.12469e-06
-1.01617e-08
4.1048e-06
-1.11505e-08
4.12383e-06
-3.46263e-09
4.10295e-06
-3.40926e-09
4.12104e-06
7.87202e-09
4.10069e-06
7.79929e-09
4.11667e-06
2.32516e-08
4.09773e-06
2.43367e-08
4.11575e-06
4.11417e-08
4.10719e-06
4.77638e-08
4.15788e-06
6.58132e-08
4.20984e-06
7.25119e-08
8.39839e-08
4.27983e-06
4.30724e-06
-1.23193e-07
4.32357e-06
5.46743e-08
4.31002e-06
-1.0035e-07
4.31704e-06
-1.85092e-09
4.30861e-06
-1.54597e-08
4.31289e-06
-4.36519e-08
4.31008e-06
-3.28963e-08
4.31441e-06
8.85319e-09
4.3122e-06
5.56767e-09
4.31684e-06
-5.35499e-09
4.31181e-06
-2.42624e-09
4.31881e-06
-1.89428e-08
4.30993e-06
-4.35583e-09
4.32004e-06
-2.43783e-08
4.30714e-06
-9.67649e-10
4.32116e-06
-2.65281e-08
4.30421e-06
2.7513e-09
4.32163e-06
-2.75821e-08
4.30171e-06
8.77717e-09
4.32097e-06
-2.27266e-08
4.29937e-06
1.81922e-08
4.31933e-06
-1.20852e-08
4.29679e-06
3.03309e-08
4.31495e-06
5.09239e-09
4.2929e-06
4.63902e-08
4.31232e-06
2.17195e-08
4.31046e-06
4.96234e-08
4.36106e-06
1.52132e-08
4.40918e-06
2.4395e-08
2.8774e-09
4.49029e-06
4.51392e-06
-1.11336e-07
4.52939e-06
3.91989e-08
4.51759e-06
-8.85464e-08
4.52285e-06
-7.11533e-09
4.51615e-06
-8.75479e-09
4.51829e-06
-4.579e-08
4.51736e-06
-3.19692e-08
4.51934e-06
6.86904e-09
4.52063e-06
4.27839e-09
4.52025e-06
-4.97178e-09
4.52236e-06
-4.53442e-09
4.51955e-06
-1.6138e-08
4.52328e-06
-8.0835e-09
4.5178e-06
-1.88982e-08
4.52374e-06
-6.90838e-09
4.51606e-06
-1.88453e-08
4.52349e-06
-4.68407e-09
4.51425e-06
-1.83377e-08
4.5224e-06
6.29512e-10
4.51226e-06
-1.25937e-08
4.5195e-06
1.09584e-08
4.50856e-06
-1.14724e-09
4.5135e-06
2.53859e-08
4.50451e-06
1.40904e-08
4.51223e-06
3.86699e-08
4.5048e-06
2.91486e-08
4.50829e-06
4.61334e-08
4.47977e-06
4.37335e-08
4.4422e-06
6.19673e-08
6.06906e-08
4.38438e-06
4.73047e-06
-9.96888e-08
4.74517e-06
2.44918e-08
4.7344e-06
-7.77738e-08
4.73917e-06
-1.18829e-08
4.73268e-06
-2.26295e-09
4.73479e-06
-4.79061e-08
4.73333e-06
-3.05072e-08
4.73533e-06
4.87525e-09
4.73759e-06
2.00968e-09
4.73497e-06
-2.34335e-09
4.74072e-06
-1.02842e-08
4.73332e-06
-8.74124e-09
4.74248e-06
-1.72435e-08
4.73081e-06
-7.23086e-09
4.74354e-06
-1.96411e-08
4.72837e-06
-3.67214e-09
4.74387e-06
-2.01861e-08
4.72619e-06
-6.52716e-10
4.74329e-06
-1.64695e-08
4.72454e-06
6.15382e-09
4.74156e-06
-6.06599e-09
4.72306e-06
1.73617e-08
4.74006e-06
8.37742e-09
4.72306e-06
3.10935e-08
4.73669e-06
2.50439e-08
4.71437e-06
5.14606e-08
4.71144e-06
4.90706e-08
4.68669e-06
6.84799e-08
4.68007e-06
6.85877e-08
9.33043e-08
4.64746e-06
4.95773e-06
-8.86204e-08
4.97015e-06
1.20688e-08
4.96347e-06
-7.10868e-08
4.96379e-06
-1.22112e-08
4.96233e-06
-7.98187e-10
4.95879e-06
-4.43703e-08
4.96221e-06
-3.39257e-08
4.95984e-06
7.24763e-09
4.9654e-06
-3.5553e-09
4.96131e-06
1.75503e-09
4.96656e-06
-1.55343e-08
4.96153e-06
-3.71219e-09
4.96653e-06
-2.22509e-08
4.96078e-06
-1.47515e-09
4.96624e-06
-2.50997e-08
4.95982e-06
2.74258e-09
4.96464e-06
-2.50013e-08
4.95871e-06
5.27494e-09
4.96228e-06
-2.0037e-08
4.9551e-06
1.33293e-08
4.95683e-06
-7.79237e-09
4.95008e-06
2.41134e-08
4.95131e-06
7.13951e-09
4.94737e-06
3.50375e-08
4.94775e-06
2.46656e-08
4.94945e-06
4.97607e-08
4.94721e-06
5.13097e-08
4.91853e-06
9.71605e-08
4.87513e-06
1.11991e-07
1.2976e-07
4.83867e-06
5.19553e-06
-7.78347e-08
5.20725e-06
3.53636e-10
5.20023e-06
-6.40705e-08
5.20326e-06
-1.52393e-08
5.19709e-06
5.37142e-09
5.20127e-06
-4.85476e-08
5.19372e-06
-2.63787e-08
5.20532e-06
-4.35754e-09
5.19349e-06
8.28303e-09
5.20908e-06
-1.38376e-08
5.19265e-06
8.96932e-10
5.21147e-06
-2.2536e-08
5.19085e-06
-1.62863e-09
5.2125e-06
-2.31283e-08
5.1888e-06
-1.39477e-09
5.21249e-06
-2.09486e-08
5.18744e-06
4.7187e-11
5.21157e-06
-1.88527e-08
5.1872e-06
4.33102e-09
5.20997e-06
-9.4375e-09
5.18725e-06
1.49227e-08
5.2065e-06
4.86763e-09
5.18297e-06
3.06675e-08
5.19367e-06
2.43329e-08
5.17313e-06
4.521e-08
5.18479e-06
3.81029e-08
5.19052e-06
4.55775e-08
5.26267e-06
2.50126e-08
5.34948e-06
2.5177e-08
2.60119e-08
5.45323e-06
5.44543e-06
-6.80771e-08
5.4529e-06
-7.11271e-09
5.4521e-06
-6.32737e-08
5.44801e-06
-1.11477e-08
5.45153e-06
1.85162e-09
5.44341e-06
-4.04241e-08
5.45042e-06
-3.33923e-08
5.4447e-06
1.36449e-09
5.45229e-06
6.92853e-10
5.44747e-06
-9.01628e-09
5.4522e-06
-3.83503e-09
5.44844e-06
-1.87761e-08
5.45162e-06
-4.80961e-09
5.44835e-06
-1.98623e-08
5.45007e-06
-3.10754e-09
5.44639e-06
-1.72702e-08
5.44758e-06
-1.14752e-09
5.44386e-06
-1.51341e-08
5.44385e-06
4.34524e-09
5.44029e-06
-5.8828e-09
5.44042e-06
1.47925e-08
5.43609e-06
9.1996e-09
5.43638e-06
3.03806e-08
5.43417e-06
2.65409e-08
5.43551e-06
4.38713e-08
5.43454e-06
3.90773e-08
5.42363e-06
5.64877e-08
5.39741e-06
5.12271e-08
5.35894e-06
6.36501e-08
6.37834e-08
5.32117e-06
5.70671e-06
-5.8833e-08
5.71334e-06
-1.37371e-08
5.71161e-06
-6.15406e-08
5.71117e-06
-1.07143e-08
5.71075e-06
2.2722e-09
5.70697e-06
-3.66401e-08
5.70842e-06
-3.48478e-08
5.7072e-06
2.58601e-09
5.71173e-06
-3.83441e-09
5.70814e-06
-5.42759e-09
5.71365e-06
-9.34938e-09
5.70775e-06
-1.28737e-08
5.71468e-06
-1.17407e-08
5.70653e-06
-1.17103e-08
5.7141e-06
-1.06779e-08
5.70512e-06
-8.28783e-09
5.71328e-06
-9.30436e-09
5.70372e-06
-5.57667e-09
5.71062e-06
-2.55829e-09
5.70056e-06
4.18355e-09
5.70532e-06
1.00291e-08
5.69722e-06
1.72985e-08
5.70203e-06
2.55746e-08
5.69444e-06
3.41247e-08
5.69455e-06
4.37643e-08
5.68191e-06
5.17128e-08
5.67701e-06
6.13931e-08
5.65972e-06
6.85145e-08
5.64472e-06
7.86547e-08
8.67812e-08
5.62172e-06
5.98074e-06
-5.03838e-08
5.98517e-06
-1.81613e-08
5.98506e-06
-6.14298e-08
5.98364e-06
-9.29923e-09
5.98576e-06
1.5462e-10
5.97835e-06
-2.92265e-08
5.98442e-06
-4.09269e-08
5.97772e-06
9.28716e-09
5.98786e-06
-1.39674e-08
5.97873e-06
3.69809e-09
5.98908e-06
-1.96953e-08
5.97953e-06
-3.32247e-09
5.98875e-06
-2.09683e-08
5.97957e-06
-2.52319e-09
5.98648e-06
-1.75957e-08
5.97868e-06
-4.88125e-10
5.98226e-06
-1.28762e-08
5.97561e-06
1.07046e-09
5.9776e-06
-4.55124e-09
5.97228e-06
9.50165e-09
5.97456e-06
7.75583e-09
5.97039e-06
2.14626e-08
5.97353e-06
2.24352e-08
5.96851e-06
3.91494e-08
5.9677e-06
4.45685e-08
5.95568e-06
6.37414e-08
5.94953e-06
6.75391e-08
5.93243e-06
8.56163e-08
5.91964e-06
9.14382e-08
1.01917e-07
5.90451e-06
6.26823e-06
-4.31223e-08
6.26897e-06
-1.89068e-08
6.27265e-06
-6.5111e-08
6.26814e-06
-4.78816e-09
6.27366e-06
-5.36541e-09
6.26379e-06
-1.9353e-08
6.27183e-06
-4.89647e-08
6.2634e-06
1.77124e-08
6.27453e-06
-2.5092e-08
6.26448e-06
1.37432e-08
6.27561e-06
-3.0826e-08
6.26564e-06
6.65297e-09
6.27539e-06
-3.07207e-08
6.26533e-06
7.53615e-09
6.27377e-06
-2.60345e-08
6.2637e-06
9.58265e-09
6.2706e-06
-1.97776e-08
6.26046e-06
1.12071e-08
6.2658e-06
-9.88713e-09
6.25763e-06
1.76721e-08
6.26129e-06
4.09641e-09
6.25462e-06
2.81256e-08
6.25674e-06
2.03217e-08
6.25411e-06
4.1774e-08
6.26141e-06
3.72691e-08
6.25726e-06
6.78886e-08
6.24817e-06
7.66371e-08
6.21329e-06
1.2049e-07
6.16464e-06
1.40095e-07
1.2845e-07
6.1381e-06
6.56765e-06
-3.53022e-08
6.57528e-06
-2.65373e-08
6.56434e-06
-5.41663e-08
6.57691e-06
-1.73639e-08
6.56168e-06
9.86134e-09
6.57759e-06
-3.52594e-08
6.55774e-06
-2.91149e-08
6.57979e-06
-4.34051e-09
6.5579e-06
-3.20303e-09
6.58103e-06
-9.37802e-09
6.55936e-06
-9.15697e-09
6.58164e-06
-1.56262e-08
6.56012e-06
-9.20384e-09
6.58029e-06
-1.26331e-08
6.56017e-06
-5.91707e-09
6.57908e-06
-9.32896e-09
6.5609e-06
-1.59242e-09
6.57639e-06
-4.28208e-09
6.56049e-06
6.01124e-09
6.5709e-06
7.2583e-09
6.55703e-06
1.79681e-08
6.56363e-06
2.15229e-08
6.54966e-06
3.42979e-08
6.5517e-06
3.97299e-08
6.54269e-06
4.62782e-08
6.57018e-06
4.04019e-08
6.60444e-06
4.23733e-08
6.68594e-06
3.89973e-08
6.786e-06
4.0034e-08
5.78286e-08
6.85662e-06
6.88474e-06
-3.0249e-08
6.88074e-06
-2.25374e-08
6.88733e-06
-6.07634e-08
6.88125e-06
-1.12776e-08
6.88917e-06
1.94106e-09
6.87815e-06
-2.42361e-08
6.88692e-06
-3.78912e-08
6.87886e-06
3.72093e-09
6.88721e-06
-1.15562e-08
6.88028e-06
-2.44636e-09
6.88814e-06
-1.70166e-08
6.88074e-06
-8.22577e-09
6.88743e-06
-1.58928e-08
6.87996e-06
-5.16799e-09
6.88599e-06
-1.19437e-08
6.87703e-06
-3.65706e-10
6.88126e-06
-5.81965e-09
6.87297e-06
4.00286e-09
6.8761e-06
2.88349e-09
6.87018e-06
1.31796e-08
6.87382e-06
1.4326e-08
6.87345e-06
2.1893e-08
6.88637e-06
2.13765e-08
6.89812e-06
2.79822e-08
6.90938e-06
3.50158e-08
6.89595e-06
5.38319e-08
6.8691e-06
6.92269e-08
6.81717e-06
9.09285e-08
6.75143e-06
1.05766e-07
8.08543e-08
6.72841e-06
7.21267e-06
-2.37831e-08
7.22056e-06
-3.04309e-08
7.20564e-06
-4.58419e-08
7.22266e-06
-2.82975e-08
7.20295e-06
2.16505e-08
7.22412e-06
-4.54054e-08
7.19993e-06
-1.36954e-08
7.22505e-06
-2.14007e-08
7.2006e-06
1.28918e-08
7.22512e-06
-2.69678e-08
7.2033e-06
4.80038e-09
7.22411e-06
-2.90336e-08
7.20482e-06
3.39899e-09
7.22227e-06
-2.26128e-08
7.20594e-06
4.37801e-09
7.22008e-06
-1.45054e-08
7.20532e-06
8.94208e-09
7.21418e-06
-4.85287e-09
7.20143e-06
1.56283e-08
7.20802e-06
6.59196e-09
7.19883e-06
2.35124e-08
7.20345e-06
1.72815e-08
7.19115e-06
3.36734e-08
7.19156e-06
2.75669e-08
7.19167e-06
3.49074e-08
7.22295e-06
2.25493e-08
7.2697e-06
2.24787e-08
7.35337e-06