/*--------------------------------*- C++ -*----------------------------------*\
| =========                 |                                                 |
| \\      /  F ield         | OpenFOAM: The Open Source CFD Toolbox           |
|  \\    /   O peration     | Version:  v2006                                 |
|   \\  /    A nd           | Website:  www.openfoam.com                      |
|    \\/     M anipulation  |                                                 |
\*---------------------------------------------------------------------------*/
FoamFile
{
    version     2.0;
    format      ascii;
    class       volVectorField;
    location    "0.7";
    object      U;
}
// * * * * * * * * * * * * * * * * * * * * * * * * * * * * * * * * * * * * * //

dimensions      [0 1 -1 0 0 0 0];


internalField   nonuniform List<vector> 
26400
(
(0.910108 -0.0048772 0)
(1.09027 0.0052398 0)
(0.911737 -0.0045113 0)
(1.09414 0.00320687 0)
(0.92078 -0.00411429 0)
(1.0918 0.00300342 0)
(0.925824 -0.00341466 0)
(1.09389 0.00321514 0)
(0.929186 -0.00279685 0)
(1.09166 0.00276128 0)
(0.932757 -0.00255318 0)
(1.09186 0.00208235 0)
(0.936228 -0.00254276 0)
(1.0925 0.00166064 0)
(0.939334 -0.00232376 0)
(1.09313 0.0014341 0)
(0.941722 -0.0020951 0)
(1.09425 0.00112575 0)
(0.943482 -0.0020057 0)
(1.09582 0.000864625 0)
(0.944106 -0.00186469 0)
(1.0977 0.000697916 0)
(0.943289 -0.00161286 0)
(1.09999 0.000521275 0)
(0.94077 -0.00132352 0)
(1.10269 0.000258303 0)
(0.935982 -0.000817095 0)
(1.10524 -1.72768e-05 0)
(0.927617 0.00104983 0)
(1.10659 0.000324057 0)
(0.916971 -0.00490776 0)
(1.0845 0.00526131 0)
(0.921314 -0.00462402 0)
(1.08819 0.00318963 0)
(0.931818 -0.00416915 0)
(1.0853 0.00298884 0)
(0.938117 -0.00349733 0)
(1.08642 0.00324495 0)
(0.942946 -0.00285471 0)
(1.08275 0.00278106 0)
(0.948081 -0.00262428 0)
(1.08106 0.00209155 0)
(0.953293 -0.00262316 0)
(1.07944 0.00167297 0)
(0.958613 -0.00240626 0)
(1.07725 0.00144959 0)
(0.963904 -0.00218317 0)
(1.0747 0.00114183 0)
(0.969479 -0.00209218 0)
(1.0715 0.00088958 0)
(0.975263 -0.00194067 0)
(1.06704 0.000741746 0)
(0.981503 -0.00167 0)
(1.06081 0.000590176 0)
(0.988555 -0.0013345 0)
(1.05212 0.000345489 0)
(0.996525 -0.000693017 0)
(1.03967 0.000136458 0)
(1.00515 0.00193566 0)
(1.02088 0.0014723 0)
(0.929117 -0.00494234 0)
(1.0728 0.00525044 0)
(0.936474 -0.00473813 0)
(1.07597 0.00315765 0)
(0.948973 -0.00420695 0)
(1.0721 0.00294688 0)
(0.957071 -0.00355853 0)
(1.07192 0.00325455 0)
(0.963663 -0.00287421 0)
(1.0663 0.00276592 0)
(0.970326 -0.00264532 0)
(1.06235 0.0020536 0)
(0.976934 -0.00263525 0)
(1.05838 0.00161877 0)
(0.983754 -0.00239498 0)
(1.05384 0.0013699 0)
(0.990468 -0.00214108 0)
(1.04902 0.00102249 0)
(0.997108 -0.00199626 0)
(1.04389 0.000717427 0)
(1.00336 -0.00176148 0)
(1.03834 0.00049565 0)
(1.00895 -0.00137919 0)
(1.0325 0.000257919 0)
(1.01349 -0.000920445 0)
(1.02653 -3.90776e-05 0)
(1.01621 -0.000252004 0)
(1.02047 -3.01521e-05 0)
(1.01607 0.00208722 0)
(1.01488 0.00370529 0)
(0.944394 -0.00496504 0)
(1.057 0.00518288 0)
(0.95327 -0.00481717 0)
(1.05943 0.00308258 0)
(0.966901 -0.00420568 0)
(1.05467 0.00285175 0)
(0.975871 -0.00356541 0)
(1.05375 0.00320479 0)
(0.983021 -0.00282683 0)
(1.04709 0.0026869 0)
(0.989599 -0.00258537 0)
(1.04224 0.00194901 0)
(0.995587 -0.0025584 0)
(1.03787 0.00149095 0)
(1.00147 -0.00229337 0)
(1.03362 0.00121669 0)
(1.00666 -0.00201352 0)
(1.02976 0.000844582 0)
(1.01103 -0.0018375 0)
(1.02638 0.000520486 0)
(1.01437 -0.00157067 0)
(1.02343 0.000292532 0)
(1.01654 -0.00116972 0)
(1.02085 7.98999e-05 0)
(1.01735 -0.000693285 0)
(1.01842 -0.000133348 0)
(1.01654 1.72769e-05 0)
(1.01569 0.000168409 0)
(1.01392 0.00248448 0)
(1.01293 0.00588371 0)
(0.960143 -0.00496717 0)
(1.0401 0.00507729 0)
(0.968448 -0.00486184 0)
(1.04202 0.0029666 0)
(0.981509 -0.00417049 0)
(1.03696 0.00271563 0)
(0.989703 -0.00353487 0)
(1.03631 0.00311564 0)
(0.995768 -0.00273899 0)
(1.03003 0.00257827 0)
(1.00068 -0.00248609 0)
(1.02593 0.00182481 0)
(1.00461 -0.00245247 0)
(1.02283 0.00135274 0)
(1.00836 -0.00218058 0)
(1.02034 0.0010705 0)
(1.01129 -0.00189364 0)
(1.01849 0.000698948 0)
(1.01334 -0.00170947 0)
(1.01718 0.000381424 0)
(1.01454 -0.00143532 0)
(1.01619 0.000170962 0)
(1.01495 -0.00103563 0)
(1.01527 -6.89128e-07 0)
(1.01448 -0.000598608 0)
(1.01399 -7.56515e-05 0)
(1.01294 -6.1595e-05 0)
(1.01193 0.000981571 0)
(1.01039 0.00156054 0)
(1.00971 0.00837321 0)
(0.97399 -0.00494519 0)
(1.025 0.00495854 0)
(0.980105 -0.00488226 0)
(1.02695 0.0028366 0)
(0.991114 -0.0041129 0)
(1.02221 0.00256846 0)
(0.997292 -0.00348871 0)
(1.0225 0.0030221 0)
(1.00137 -0.0026401 0)
(1.01741 0.00247718 0)
(1.00418 -0.00238304 0)
(1.01473 0.00171707 0)
(1.00609 -0.00235253 0)
(1.01314 0.00123533 0)
(1.00813 -0.00208474 0)
(1.0122 0.000950483 0)
(1.00967 -0.00179597 0)
(1.01169 0.000584133 0)
(1.01063 -0.00160482 0)
(1.01143 0.00027145 0)
(1.01108 -0.00132168 0)
(1.0112 7.49156e-05 0)
(1.01106 -0.000910656 0)
(1.01077 -6.68727e-05 0)
(1.01041 -0.000478472 0)
(1.00974 -5.79065e-05 0)
(1.00891 0.000101311 0)
(1.00781 0.000960708 0)
(1.00674 0.00252473 0)
(1.00605 0.00613228 0)
(0.984578 -0.00490066 0)
(1.01342 0.00484514 0)
(0.987918 -0.00488802 0)
(1.0159 0.00271717 0)
(0.996268 -0.00404302 0)
(1.01171 0.0024321 0)
(1.00011 -0.00343738 0)
(1.01295 0.0029429 0)
(1.00227 -0.00254218 0)
(1.009 0.00239452 0)
(1.00345 -0.00228552 0)
(1.00749 0.00162704 0)
(1.0041 -0.00225987 0)
(1.00692 0.00112984 0)
(1.00526 -0.00199569 0)
(1.00678 0.000833691 0)
(1.00624 -0.00169789 0)
(1.00686 0.000459167 0)
(1.00689 -0.00148479 0)
(1.00699 0.00013097 0)
(1.00718 -0.00117032 0)
(1.007 -8.11292e-05 0)
(1.0071 -0.000717624 0)
(1.0067 -0.000220585 0)
(1.00646 -0.000216659 0)
(1.00577 -0.000220654 0)
(1.00502 0.000596252 0)
(1.00403 0.000485124 0)
(1.00299 0.00399831 0)
(1.00257 0.00456305 0)
(0.991732 -0.00483777 0)
(1.00565 0.00474508 0)
(0.992647 -0.00488616 0)
(1.00883 0.00261824 0)
(0.998564 -0.00396543 0)
(1.00506 0.00231328 0)
(1.00044 -0.00338099 0)
(1.00686 0.00287924 0)
(1.00121 -0.00244514 0)
(1.00363 0.00232467 0)
(1.00145 -0.00219195 0)
(1.00284 0.00154506 0)
(1.00149 -0.00217119 0)
(1.00277 0.00102883 0)
(1.00226 -0.0019124 0)
(1.00294 0.000720699 0)
(1.00304 -0.00161249 0)
(1.00325 0.000346442 0)
(1.00362 -0.00139392 0)
(1.00351 2.49057e-05 0)
(1.00386 -0.00108872 0)
(1.00358 -0.000162701 0)
(1.00373 -0.000662148 0)
(1.00332 -0.000223408 0)
(1.00308 -0.00022133 0)
(1.00245 -4.20184e-06 0)
(1.0017 0.000177496 0)
(1.00087 0.0017642 0)
(0.999936 0.00252281 0)
(0.99968 0.0101613 0)
(0.996086 -0.00476049 0)
(1.00097 0.00465579 0)
(0.995357 -0.00488028 0)
(1.00476 0.00253772 0)
(0.999467 -0.00387985 0)
(1.00115 0.00220834 0)
(0.999964 -0.00331532 0)
(1.00312 0.00282367 0)
(0.999888 -0.00234448 0)
(1.00025 0.00225723 0)
(0.999666 -0.00209697 0)
(0.999865 0.00145994 0)
(0.999458 -0.00207838 0)
(1.00003 0.000921646 0)
(1.00002 -0.00182281 0)
(1.0003 0.000599198 0)
(1.00069 -0.00152179 0)
(1.00068 0.000224439 0)
(1.00122 -0.00129376 0)
(1.00098 -9.22276e-05 0)
(1.00141 -0.000984777 0)
(1.00104 -0.000258134 0)
(1.00121 -0.000571142 0)
(1.00075 -0.000260717 0)
(1.00054 -0.000145649 0)
(0.999862 5.43831e-05 0)
(0.999274 0.000299939 0)
(0.998373 0.00192191 0)
(0.998035 0.00224161 0)
(0.997462 0.00996623 0)
(0.998527 -0.00467164 0)
(0.998379 0.00456937 0)
(0.996892 -0.00487047 0)
(1.00255 0.00246859 0)
(0.999828 -0.00378468 0)
(0.99893 0.00211041 0)
(0.999448 -0.00323717 0)
(1.00088 0.00276844 0)
(0.998912 -0.00223686 0)
(0.998194 0.00218442 0)
(0.998503 -0.00199643 0)
(0.998065 0.00136421 0)
(0.998199 -0.00197494 0)
(0.998362 0.000800444 0)
(0.99863 -0.00171723 0)
(0.998637 0.000458276 0)
(0.999189 -0.00140873 0)
(0.999019 7.162e-05 0)
(0.999674 -0.00115966 0)
(0.999305 -0.000251601 0)
(0.999793 -0.000815819 0)
(0.999309 -0.000426396 0)
(0.999521 -0.00035777 0)
(0.998974 -0.000444805 0)
(0.998815 0.000173072 0)
(0.998088 -0.000230959 0)
(0.997586 0.00126236 0)
(0.996683 0.00064216 0)
(0.996562 0.00383442 0)
(0.996155 0.00253665 0)
(0.999819 -0.00457325 0)
(0.997061 0.00447846 0)
(0.997756 -0.00485455 0)
(1.00136 0.00240395 0)
(0.999983 -0.00367914 0)
(0.997671 0.00201397 0)
(0.999078 -0.00314641 0)
(0.999588 0.00270997 0)
(0.998326 -0.00212332 0)
(0.997028 0.00210678 0)
(0.99788 -0.0018948 0)
(0.997081 0.00126638 0)
(0.99755 -0.00187403 0)
(0.997457 0.000687826 0)
(0.997876 -0.00162488 0)
(0.997709 0.000342679 0)
(0.998331 -0.00132868 0)
(0.99806 -2.97258e-05 0)
(0.998752 -0.00109501 0)
(0.998308 -0.000314814 0)
(0.9988 -0.000777982 0)
(0.998252 -0.000427225 0)
(0.998451 -0.00036668 0)
(0.997871 -0.000358215 0)
(0.9977 0.00015368 0)
(0.997002 -2.24763e-05 0)
(0.996466 0.00121872 0)
(0.995701 0.000907888 0)
(0.99529 0.00392794 0)
(0.995659 0.00155832 0)
(1.00047 -0.0044669 0)
(0.996473 0.00437856 0)
(0.998208 -0.00482917 0)
(1.00069 0.00233788 0)
(1.00003 -0.00356218 0)
(0.996944 0.0019132 0)
(0.998829 -0.00304141 0)
(0.998896 0.00264103 0)
(0.998015 -0.00199797 0)
(0.99645 0.00201334 0)
(0.997619 -0.00177893 0)
(0.996636 0.00114771 0)
(0.997297 -0.00175012 0)
(0.997059 0.000547568 0)
(0.997539 -0.00149551 0)
(0.997268 0.000182855 0)
(0.997897 -0.00119019 0)
(0.997564 -0.000197211 0)
(0.998252 -0.000946123 0)
(0.997754 -0.000469058 0)
(0.998237 -0.00062907 0)
(0.997631 -0.000549522 0)
(0.997831 -0.000221817 0)
(0.997198 -0.000416938 0)
(0.997057 0.000283636 0)
(0.996326 5.91968e-05 0)
(0.995858 0.00115699 0)
(0.995124 0.00154473 0)
(0.994761 0.00386782 0)
(0.995617 0.00603053 0)
(1.00078 -0.00435412 0)
(0.996304 0.0042683 0)
(0.998383 -0.00479153 0)
(1.00029 0.00226753 0)
(0.999977 -0.00343515 0)
(0.996511 0.00180728 0)
(0.998649 -0.00292689 0)
(0.998582 0.00256439 0)
(0.997873 -0.00186848 0)
(0.996252 0.00191437 0)
(0.997575 -0.00166498 0)
(0.996534 0.00103241 0)
(0.997271 -0.00163649 0)
(0.996975 0.000427672 0)
(0.997437 -0.00139527 0)
(0.99713 6.89917e-05 0)
(0.997699 -0.00111789 0)
(0.997357 -0.000277948 0)
(0.997981 -0.000907221 0)
(0.997482 -0.000489467 0)
(0.997905 -0.000634343 0)
(0.997299 -0.000485673 0)
(0.99745 -0.000286049 0)
(0.996822 -0.000224205 0)
(0.996659 0.000136335 0)
(0.995944 0.000474133 0)
(0.995521 0.000876518 0)
(0.994867 0.00232308 0)
(0.99476 0.00357313 0)
(0.99555 0.0102309 0)
(1.0009 -0.00423587 0)
(0.996377 0.00414695 0)
(0.998371 -0.0047379 0)
(1.00001 0.00218934 0)
(0.999859 -0.00329657 0)
(0.996241 0.00169113 0)
(0.998509 -0.00280015 0)
(0.998507 0.00247209 0)
(0.997834 -0.00172669 0)
(0.996296 0.00179776 0)
(0.997659 -0.0015363 0)
(0.996639 0.00089851 0)
(0.997376 -0.00150248 0)
(0.997072 0.000288658 0)
(0.997467 -0.00126707 0)
(0.99716 -6.97205e-05 0)
(0.997631 -0.0010087 0)
(0.997304 -0.000398484 0)
(0.997839 -0.000814084 0)
(0.997353 -0.00057069 0)
(0.997708 -0.000553603 0)
(0.997104 -0.000525796 0)
(0.997219 -0.000206463 0)
(0.996581 -0.000236251 0)
(0.996429 0.000296175 0)
(0.995697 0.000471022 0)
(0.995357 0.00136006 0)
(0.994743 0.00223984 0)
(0.995153 0.00389114 0)
(0.995745 0.00634775 0)
(1.00093 -0.00411313 0)
(0.996589 0.00401498 0)
(0.998238 -0.0046662 0)
(0.999786 0.00210232 0)
(0.999696 -0.0031475 0)
(0.996057 0.00156434 0)
(0.998396 -0.00266554 0)
(0.998577 0.00236741 0)
(0.997863 -0.00158072 0)
(0.996487 0.00167308 0)
(0.997825 -0.00140574 0)
(0.996864 0.000764839 0)
(0.997556 -0.00137276 0)
(0.997274 0.000159552 0)
(0.997565 -0.00114384 0)
(0.997289 -0.000189754 0)
(0.997622 -0.000911717 0)
(0.997345 -0.000490102 0)
(0.997747 -0.00074321 0)
(0.997317 -0.000613589 0)
(0.997558 -0.000505174 0)
(0.997009 -0.000526789 0)
(0.99703 -0.00014865 0)
(0.996457 -0.000236423 0)
(0.996229 0.000512734 0)
(0.995603 0.0004191 0)
(0.995211 0.00192771 0)
(0.994722 0.00214521 0)
(0.994801 0.0044863 0)
(0.99605 0.00276495 0)
(1.00089 -0.00398634 0)
(0.996875 0.0038724 0)
(0.99804 -0.00457341 0)
(0.999596 0.00200309 0)
(0.999511 -0.00298572 0)
(0.995918 0.0014229 0)
(0.998306 -0.00252181 0)
(0.998725 0.00224506 0)
(0.99794 -0.00142449 0)
(0.996748 0.00152973 0)
(0.998047 -0.00126192 0)
(0.99714 0.000620176 0)
(0.997792 -0.00123173 0)
(0.99751 2.37735e-05 0)
(0.99772 -0.00102423 0)
(0.997442 -0.000297308 0)
(0.997675 -0.00083833 0)
(0.997401 -0.000546483 0)
(0.997724 -0.000716981 0)
(0.997288 -0.000597404 0)
(0.997484 -0.000525934 0)
(0.996914 -0.000431214 0)
(0.996926 -0.000215744 0)
(0.996336 -2.31819e-05 0)
(0.996124 0.000369077 0)
(0.995508 0.000869629 0)
(0.995175 0.00167405 0)
(0.994722 0.00294953 0)
(0.994796 0.00470934 0)
(0.996563 0.00709327 0)
(1.00083 -0.00385665 0)
(0.997195 0.00372015 0)
(0.997816 -0.00445847 0)
(0.999436 0.0018937 0)
(0.99931 -0.00281628 0)
(0.995819 0.00127306 0)
(0.998218 -0.00237746 0)
(0.998921 0.00211379 0)
(0.998025 -0.00127 0)
(0.997052 0.00138682 0)
(0.998274 -0.00113116 0)
(0.997454 0.000493633 0)
(0.998028 -0.00110887 0)
(0.997785 -7.40305e-05 0)
(0.997877 -0.000953118 0)
(0.997638 -0.000342844 0)
(0.99773 -0.000833348 0)
(0.997505 -0.000521331 0)
(0.997704 -0.000773526 0)
(0.997312 -0.000489112 0)
(0.997414 -0.000636938 0)
(0.996879 -0.00023776 0)
(0.99683 -0.000379338 0)
(0.996267 0.000307417 0)
(0.996041 0.000114613 0)
(0.995464 0.00145148 0)
(0.995178 0.00130587 0)
(0.994847 0.00378613 0)
(0.995126 0.00481912 0)
(0.996624 0.0116372 0)
(1.00074 -0.00372224 0)
(0.997519 0.00355418 0)
(0.997602 -0.00431787 0)
(0.999312 0.00177008 0)
(0.999112 -0.00263273 0)
(0.995757 0.00110424 0)
(0.998131 -0.00222056 0)
(0.99914 0.00195893 0)
(0.998102 -0.00110294 0)
(0.997363 0.00122711 0)
(0.998487 -0.00098595 0)
(0.997774 0.000345069 0)
(0.99825 -0.000964575 0)
(0.998068 -0.00018643 0)
(0.99803 -0.000842126 0)
(0.997847 -0.00041955 0)
(0.997797 -0.00076246 0)
(0.997626 -0.000562541 0)
(0.997709 -0.000716759 0)
(0.997357 -0.000515804 0)
(0.997379 -0.000542676 0)
(0.996867 -0.000300106 0)
(0.996778 -0.000187839 0)
(0.996229 0.000182387 0)
(0.996012 0.000549506 0)
(0.99545 0.00125257 0)
(0.995234 0.0020925 0)
(0.995035 0.00337472 0)
(0.995843 0.00486343 0)
(0.996909 0.00687078 0)
(1.00066 -0.00358413 0)
(0.997811 0.00337693 0)
(0.99743 -0.00415529 0)
(0.999219 0.00163314 0)
(0.998942 -0.0024389 0)
(0.995718 0.000922724 0)
(0.998059 -0.00206393 0)
(0.999349 0.00179459 0)
(0.998171 -0.000944874 0)
(0.997646 0.00106797 0)
(0.998672 -0.000844643 0)
(0.998069 0.000209722 0)
(0.998445 -0.000871502 0)
(0.998339 -0.000271042 0)
(0.998164 -0.000781135 0)
(0.998062 -0.000457296 0)
(0.997855 -0.000736649 0)
(0.997772 -0.000566998 0)
(0.997712 -0.000694779 0)
(0.997447 -0.000511295 0)
(0.997341 -0.000473421 0)
(0.996921 -0.000333645 0)
(0.99672 -9.62441e-06 0)
(0.996284 6.66462e-05 0)
(0.995973 0.000931619 0)
(0.995564 0.00110743 0)
(0.995266 0.00280326 0)
(0.995148 0.00316888 0)
(0.995468 0.00499077 0)
(0.997336 0.00264879 0)
(1.0006 -0.00344776 0)
(0.998036 0.00319602 0)
(0.997322 -0.00397834 0)
(0.999145 0.00150215 0)
(0.998822 -0.00225326 0)
(0.995676 0.000756389 0)
(0.998027 -0.0019246 0)
(0.999499 0.00164877 0)
(0.998251 -0.000810664 0)
(0.997841 0.000931481 0)
(0.998852 -0.000742916 0)
(0.998271 0.000150808 0)
(0.99864 -0.000778385 0)
(0.998527 -0.000297446 0)
(0.998323 -0.000740709 0)
(0.998202 -0.000431825 0)
(0.997963 -0.000755022 0)
(0.997854 -0.00048788 0)
(0.997785 -0.000753333 0)
(0.997486 -0.000377672 0)
(0.997389 -0.000571325 0)
(0.996934 -0.000117875 0)
(0.996759 -0.000151987 0)
(0.996306 0.000417946 0)
(0.99605 0.000712137 0)
(0.995655 0.00164098 0)
(0.995429 0.00251469 0)
(0.995305 0.00412641 0)
(0.995562 0.00567785 0)
(0.998075 0.00759978 0)
(1.00056 -0.00328703 0)
(0.998205 0.00296947 0)
(0.997256 -0.00374886 0)
(0.999113 0.00131216 0)
(0.998728 -0.00200475 0)
(0.995657 0.000507527 0)
(0.998006 -0.00171266 0)
(0.999619 0.00140476 0)
(0.998296 -0.000586924 0)
(0.997984 0.000693802 0)
(0.99897 -0.000556532 0)
(0.998433 -5.52841e-05 0)
(0.998769 -0.000622824 0)
(0.998683 -0.000414452 0)
(0.998431 -0.000650089 0)
(0.998327 -0.000475882 0)
(0.998038 -0.000739409 0)
(0.997942 -0.000461274 0)
(0.99784 -0.000804072 0)
(0.997548 -0.000262927 0)
(0.997431 -0.000711161 0)
(0.996984 0.000140263 0)
(0.996807 -0.000394185 0)
(0.996371 0.000949507 0)
(0.996143 0.000369398 0)
(0.995795 0.00236812 0)
(0.995658 0.0020026 0)
(0.995658 0.00517081 0)
(0.996087 0.00616877 0)
(0.997917 0.012894 0)
(1.00052 -0.0031604 0)
(0.998335 0.00279397 0)
(0.997207 -0.00356856 0)
(0.999139 0.00120628 0)
(0.99865 -0.00185277 0)
(0.995674 0.000394152 0)
(0.997991 -0.00165082 0)
(0.999729 0.00134105 0)
(0.998307 -0.000574778 0)
(0.998096 0.000716923 0)
(0.999024 -0.000629067 0)
(0.998556 4.39119e-05 0)
(0.998845 -0.00079419 0)
(0.998806 -0.000210401 0)
(0.998504 -0.000866626 0)
(0.998428 -0.000235463 0)
(0.998098 -0.000946587 0)
(0.998018 -0.000257043 0)
(0.997897 -0.000919964 0)
(0.997607 -0.000147141 0)
(0.997494 -0.00069436 0)
(0.997038 0.000120275 0)
(0.996902 -0.000190296 0)
(0.99645 0.000812487 0)
(0.996287 0.000843683 0)
(0.995942 0.002201 0)
(0.995941 0.00284927 0)
(0.996119 0.00462758 0)
(0.997155 0.00565359 0)
(0.99817 0.00695925 0)
(1.0005 -0.00296848 0)
(0.998424 0.00250855 0)
(0.99718 -0.00326702 0)
(0.999196 0.000959682 0)
(0.998604 -0.00154909 0)
(0.995705 8.81457e-05 0)
(0.998 -0.0013569 0)
(0.999827 0.00100491 0)
(0.998302 -0.000274491 0)
(0.998178 0.000365981 0)
(0.999044 -0.000291749 0)
(0.998649 -0.000257086 0)
(0.99888 -0.000381563 0)
(0.998909 -0.000578007 0)
(0.998538 -0.000376772 0)
(0.998528 -0.000709751 0)
(0.998117 -0.00032093 0)
(0.998121 -0.000867 0)
(0.99791 -0.000143626 0)
(0.997719 -0.000885458 0)
(0.997503 0.000286796 0)
(0.997172 -0.000756246 0)
(0.996932 0.000939576 0)
(0.996635 -0.00025716 0)
(0.996393 0.00214388 0)
(0.996245 0.00107667 0)
(0.996133 0.004339 0)
(0.996291 0.00340182 0)
(0.99656 0.00637404 0)
(0.998668 0.00239003 0)
(1.00051 -0.00283731 0)
(0.998461 0.00231239 0)
(0.997191 -0.00307841 0)
(0.999243 0.000862282 0)
(0.998607 -0.00139951 0)
(0.995711 -2.12271e-05 0)
(0.998062 -0.00132283 0)
(0.99987 0.000974154 0)
(0.998331 -0.000319798 0)
(0.998189 0.00045187 0)
(0.999091 -0.000505025 0)
(0.998663 -1.6929e-05 0)
(0.998944 -0.000766045 0)
(0.998929 -0.000141973 0)
(0.998612 -0.000932809 0)
(0.99855 -8.2526e-05 0)
(0.99819 -0.00109625 0)
(0.998144 1.43897e-05 0)
(0.997994 -0.00116932 0)
(0.997759 0.000288734 0)
(0.997601 -0.00106984 0)
(0.997223 0.000890342 0)
(0.99706 -0.000688824 0)
(0.99674 0.00184112 0)
(0.996598 0.000214163 0)
(0.996451 0.00337223 0)
(0.996473 0.00186828 0)
(0.996643 0.00611777 0)
(0.996977 0.0060005 0)
(0.998881 0.0135475 0)
(1.00052 -0.00263857 0)
(0.998501 0.00203401 0)
(0.997191 -0.00278818 0)
(0.999331 0.000627229 0)
(0.998593 -0.00111915 0)
(0.995749 -0.00027725 0)
(0.99811 -0.00112739 0)
(0.999938 0.000746823 0)
(0.998326 -0.000144113 0)
(0.998211 0.000282674 0)
(0.999089 -0.000381178 0)
(0.99869 -0.000149307 0)
(0.998964 -0.000616165 0)
(0.998965 -0.000300934 0)
(0.998649 -0.000704459 0)
(0.998581 -0.000337055 0)
(0.998241 -0.000758474 0)
(0.998178 -0.00040269 0)
(0.998066 -0.000673414 0)
(0.997794 -0.000304121 0)
(0.997719 -0.000418946 0)
(0.997289 9.44633e-05 0)
(0.997223 0.000225516 0)
(0.99685 0.000951892 0)
(0.996816 0.00136687 0)
(0.996628 0.00248012 0)
(0.996858 0.00329105 0)
(0.997292 0.00467516 0)
(0.998483 0.00568403 0)
(0.999091 0.0071012 0)
(1.00054 -0.00250105 0)
(0.998534 0.00180624 0)
(0.997197 -0.00254033 0)
(0.999425 0.000503842 0)
(0.998598 -0.000958537 0)
(0.995788 -0.000410016 0)
(0.998172 -0.00100981 0)
(1.00002 0.000608025 0)
(0.998317 -0.00010653 0)
(0.998244 0.000193919 0)
(0.999077 -0.000276429 0)
(0.998731 -0.000213681 0)
(0.99896 -0.000421991 0)
(0.999024 -0.000450638 0)
(0.998648 -0.000383851 0)
(0.998659 -0.000606947 0)
(0.998229 -0.000221906 0)
(0.99828 -0.000840699 0)
(0.998062 0.000108555 0)
(0.997928 -0.00094031 0)
(0.997724 0.000695231 0)
(0.997467 -0.000883695 0)
(0.997278 0.00157458 0)
(0.997093 -0.000383095 0)
(0.996979 0.00293458 0)
(0.996994 0.00108363 0)
(0.997046 0.00524878 0)
(0.997321 0.00322966 0)
(0.997635 0.00636339 0)
(0.999626 0.000806086 0)
(1.00062 -0.00226272 0)
(0.998508 0.00147145 0)
(0.997276 -0.0022458 0)
(0.999456 0.000268524 0)
(0.998667 -0.00066922 0)
(0.995757 -0.000644623 0)
(0.998307 -0.000843135 0)
(1.00001 0.00044116 0)
(0.998389 1.15463e-05 0)
(0.998188 0.000140524 0)
(0.999146 -0.000382591 0)
(0.998677 -9.27445e-05 0)
(0.999043 -0.000748383 0)
(0.998991 -7.35368e-05 0)
(0.998744 -0.00101665 0)
(0.998643 0.000109184 0)
(0.998329 -0.00130034 0)
(0.998287 0.000328052 0)
(0.998173 -0.00140982 0)
(0.997968 0.000710385 0)
(0.997848 -0.00122767 0)
(0.997544 0.00126578 0)
(0.997433 -0.000696341 0)
(0.997237 0.00210403 0)
(0.997237 0.000332581 0)
(0.997278 0.00358418 0)
(0.99747 0.00236141 0)
(0.997711 0.00678306 0)
(0.997959 0.00724326 0)
(0.999772 0.0134484 0)
(1.00065 -0.00216898 0)
(0.998523 0.00133374 0)
(0.997318 -0.00210029 0)
(0.999549 0.000224084 0)
(0.998686 -0.000615375 0)
(0.99577 -0.000634424 0)
(0.998401 -0.000893631 0)
(1.00005 0.000475899 0)
(0.998414 -8.19161e-05 0)
(0.998156 0.00020761 0)
(0.999172 -0.000457834 0)
(0.998654 -3.43614e-05 0)
(0.999093 -0.0007776 0)
(0.99897 -2.52123e-05 0)
(0.998823 -0.00100888 0)
(0.998612 0.000152982 0)
(0.998433 -0.00127662 0)
(0.998266 0.000405139 0)
(0.998312 -0.00141226 0)
(0.997972 0.000864464 0)
(0.998021 -0.0012851 0)
(0.997591 0.00152614 0)
(0.997648 -0.000809461 0)
(0.997344 0.0024932 0)
(0.997511 0.000149979 0)
(0.997519 0.00380471 0)
(0.998048 0.00179849 0)
(0.998687 0.00648571 0)
(0.999669 0.00660494 0)
(0.99921 0.0133961 0)
(1.00063 -0.00189123 0)
(0.998616 0.000915275 0)
(0.997293 -0.00168297 0)
(0.999702 -1.54888e-05 0)
(0.998659 -0.000251098 0)
(0.995856 -0.000960603 0)
(0.998447 -0.000578859 0)
(1.00016 6.22415e-05 0)
(0.998385 0.000269783 0)
(0.998224 -0.000273962 0)
(0.999131 0.000138105 0)
(0.998722 -0.000723006 0)
(0.999065 9.24538e-05 0)
(0.999053 -0.000987303 0)
(0.998811 0.000198287 0)
(0.998705 -0.00117054 0)
(0.998434 0.000361301 0)
(0.998372 -0.00133817 0)
(0.998338 0.000636791 0)
(0.998101 -0.001271 0)
(0.99808 0.00109498 0)
(0.99775 -0.000888474 0)
(0.997759 0.0017704 0)
(0.997559 -7.46172e-05 0)
(0.997682 0.00288554 0)
(0.99779 0.00107517 0)
(0.998326 0.00397866 0)
(0.999133 0.00155613 0)
(1.00016 0.00338413 0)
(0.99972 2.43692e-05 0)
(1.00064 -0.00177224 0)
(0.998706 0.00076509 0)
(0.997288 -0.0016487 0)
(0.999831 -6.69246e-05 0)
(0.99866 -0.000283495 0)
(0.99591 -0.000770879 0)
(0.998532 -0.000779842 0)
(1.00028 0.000312866 0)
(0.998389 -3.69086e-06 0)
(0.998277 1.63266e-05 0)
(0.999124 -0.000252235 0)
(0.998775 -0.000372553 0)
(0.999066 -0.000314847 0)
(0.999115 -0.000588873 0)
(0.998811 -0.00024494 0)
(0.998781 -0.000746038 0)
(0.998431 -0.00012009 0)
(0.998474 -0.000916683 0)
(0.998362 0.000173485 0)
(0.998236 -0.000823706 0)
(0.99815 0.000687777 0)
(0.997922 -0.000373876 0)
(0.997895 0.00145986 0)
(0.997801 0.000525171 0)
(0.997874 0.00255425 0)
(0.998001 0.00167795 0)
(0.99826 0.00331227 0)
(0.998693 0.00143011 0)
(0.999264 0.00177579 0)
(1.00149 0.000106153 0)
(1.00068 -0.00161601 0)
(0.998747 0.000545109 0)
(0.997337 -0.00137773 0)
(0.999915 -0.000139517 0)
(0.998722 -0.000115239 0)
(0.995914 -0.0010258 0)
(0.998658 -0.000590263 0)
(1.00033 2.5101e-05 0)
(0.998442 0.000190786 0)
(0.998273 -0.000233375 0)
(0.999169 7.213e-06 0)
(0.998783 -0.000545127 0)
(0.999122 -0.000149826 0)
(0.999136 -0.000617533 0)
(0.998876 -0.000217407 0)
(0.998812 -0.000596198 0)
(0.998501 -0.000252101 0)
(0.99853 -0.000564366 0)
(0.99846 -0.000142316 0)
(0.998326 -0.00029537 0)
(0.998286 0.000244304 0)
(0.998059 0.000261829 0)
(0.998089 0.00096362 0)
(0.99798 0.00111475 0)
(0.998109 0.0018969 0)
(0.99816 0.00224773 0)
(0.998389 0.00309809 0)
(0.998857 0.00376349 0)
(0.999965 0.00483001 0)
(1.00374 0.00602139 0)
(1.0007 -0.00130289 0)
(0.998831 0.000141042 0)
(0.997401 -0.00114135 0)
(1.00004 -0.000344258 0)
(0.998721 8.73683e-05 0)
(0.995956 -0.000935504 0)
(0.998754 -0.000643156 0)
(1.00042 0.000136183 0)
(0.998463 -7.66322e-05 0)
(0.998311 8.4671e-05 0)
(0.999187 -0.000484275 0)
(0.998816 3.38723e-05 0)
(0.999163 -0.000833436 0)
(0.999179 0.000165123 0)
(0.998932 -0.00110842 0)
(0.998864 0.000393066 0)
(0.998568 -0.00127772 0)
(0.9986 0.000564655 0)
(0.998558 -0.00124042 0)
(0.998437 0.000930507 0)
(0.998424 -0.000809549 0)
(0.998224 0.0015465 0)
(0.998262 -6.40731e-05 0)
(0.998191 0.00229692 0)
(0.998347 0.000843629 0)
(0.998512 0.00337106 0)
(0.998895 0.00239624 0)
(0.999425 0.00628897 0)
(1.00018 0.00734637 0)
(1.00285 0.0123616 0)
(1.0007 -0.00143472 0)
(0.998906 0.000327921 0)
(0.997447 -0.0013445 0)
(1.00019 -2.50383e-05 0)
(0.99877 -0.000162778 0)
(0.995986 -0.000703335 0)
(0.998847 -0.000862024 0)
(1.00048 0.000279069 0)
(0.998502 -0.000156144 0)
(0.998301 4.54376e-05 0)
(0.999228 -0.000480065 0)
(0.998824 -0.000179016 0)
(0.999222 -0.000624732 0)
(0.999194 -0.000219877 0)
(0.999023 -0.000701705 0)
(0.998893 -0.000168115 0)
(0.998669 -0.000720637 0)
(0.998659 -0.000132068 0)
(0.998694 -0.000526572 0)
(0.998553 0.000201587 0)
(0.998603 3.58022e-05 0)
(0.998383 0.000846456 0)
(0.998467 0.000843044 0)
(0.998375 0.00173402 0)
(0.99861 0.00188452 0)
(0.998782 0.00279883 0)
(0.999529 0.0029928 0)
(1.00068 0.00373444 0)
(1.00228 0.00385053 0)
(1.00294 0.00501605 0)
(1.00071 -0.000807713 0)
(0.999036 -0.000367668 0)
(0.997464 -0.00070767 0)
(1.00035 -0.000588818 0)
(0.998735 0.000463405 0)
(0.996074 -0.00136516 0)
(0.998928 -0.000166239 0)
(1.00065 -0.000555718 0)
(0.998475 0.000664979 0)
(0.998406 -0.000870666 0)
(0.999192 0.000584622 0)
(0.998928 -0.00124785 0)
(0.999204 0.000607879 0)
(0.999305 -0.00140553 0)
(0.999006 0.000690821 0)
(0.99901 -0.00145853 0)
(0.998664 0.000782515 0)
(0.998802 -0.00147317 0)
(0.998741 0.000985533 0)
(0.998741 -0.00113457 0)
(0.998711 0.00145978 0)
(0.998614 -0.000457504 0)
(0.998651 0.00224794 0)
(0.998678 0.00063261 0)
(0.998829 0.00337247 0)
(0.999053 0.0017145 0)
(0.999367 0.00402818 0)
(0.999871 0.00121365 0)
(1.00077 0.00201379 0)
(1.00415 -0.000549807 0)
(1.00077 -0.00130756 0)
(0.999062 0.000247526 0)
(0.99757 -0.00149582 0)
(1.00044 0.000246751 0)
(0.99884 -0.00045416 0)
(0.996049 -0.000113075 0)
(0.999072 -0.00130632 0)
(1.00069 0.000682561 0)
(0.99856 -0.000686316 0)
(0.998394 0.000521734 0)
(0.999261 -0.00087709 0)
(0.998926 0.000319799 0)
(0.999284 -0.000981481 0)
(0.999318 0.000292101 0)
(0.999105 -0.000979453 0)
(0.999042 0.000363601 0)
(0.998769 -0.000939229 0)
(0.998856 0.000399457 0)
(0.998885 -0.000715439 0)
(0.998839 0.000731716 0)
(0.9989 -0.000182353 0)
(0.998781 0.00136197 0)
(0.998911 0.000694917 0)
(0.998908 0.00236884 0)
(0.999093 0.00188049 0)
(0.999207 0.00350606 0)
(0.999505 0.00292298 0)
(1.0002 0.00434116 0)
(1.00189 0.00442098 0)
(1.0063 0.00764617 0)
(1.0008 -0.000482315 0)
(0.999122 -0.00076931 0)
(0.997673 -0.000589627 0)
(1.00056 -0.000625389 0)
(0.998874 0.000582948 0)
(0.996064 -0.00142221 0)
(0.999182 -7.99175e-05 0)
(1.00079 -0.000636984 0)
(0.998587 0.000584615 0)
(0.998425 -0.00084248 0)
(0.999287 0.000471458 0)
(0.998962 -0.00103108 0)
(0.999333 0.00036244 0)
(0.999371 -0.00101128 0)
(0.999171 0.000347908 0)
(0.999103 -0.000915999 0)
(0.998843 0.000343434 0)
(0.998959 -0.000831186 0)
(0.999006 0.000557789 0)
(0.998996 -0.000431284 0)
(0.999075 0.00108319 0)
(0.998993 0.000260651 0)
(0.999152 0.00187955 0)
(0.99919 0.00125999 0)
(0.999412 0.00301745 0)
(0.999567 0.00283043 0)
(0.99989 0.00496549 0)
(1.00061 0.0051953 0)
(1.00233 0.0067226 0)
(1.00681 0.0051272 0)
(1.00082 -0.000928032 0)
(0.999213 0.000108425 0)
(0.997789 -0.00142337 0)
(1.00073 0.000271074 0)
(0.998901 -0.000585535 0)
(0.996106 0.00021999 0)
(0.999287 -0.00161601 0)
(1.00087 0.00104329 0)
(0.998619 -0.00126149 0)
(0.998456 0.0010353 0)
(0.999316 -0.00150666 0)
(0.999002 0.00086583 0)
(0.999388 -0.00159047 0)
(0.999433 0.000882181 0)
(0.999248 -0.00151 0)
(0.999185 0.000915874 0)
(0.998935 -0.00134744 0)
(0.999074 0.000959539 0)
(0.999146 -0.000984826 0)
(0.99916 0.0012882 0)
(0.999261 -0.000376042 0)
(0.999209 0.00188225 0)
(0.999392 0.000498953 0)
(0.999482 0.00279691 0)
(0.999808 0.00162821 0)
(1.00012 0.00419753 0)
(1.00059 0.00394926 0)
(1.00111 0.00816453 0)
(1.00199 0.00957838 0)
(1.00529 0.0136926 0)
(1.00076 -0.00050869 0)
(0.999255 -0.000564372 0)
(0.997814 -0.000852595 0)
(1.00089 -0.00041087 0)
(0.998937 0.000312261 0)
(0.996112 -0.000887113 0)
(0.999331 -0.000538314 0)
(1.00093 -0.000159353 0)
(0.998624 -2.27038e-05 0)
(0.99847 -0.000282564 0)
(0.999301 -0.000197082 0)
(0.999048 -0.000480619 0)
(0.999406 -0.000280061 0)
(0.999508 -0.000412999 0)
(0.999288 -0.000227043 0)
(0.999277 -0.000304641 0)
(0.998995 -0.000127083 0)
(0.999199 -0.000169583 0)
(0.999252 0.000190186 0)
(0.999322 0.000257232 0)
(0.999418 0.000748272 0)
(0.999423 0.000923857 0)
(0.999622 0.00162787 0)
(0.999735 0.00204108 0)
(1.00009 0.00287066 0)
(1.00061 0.00319665 0)
(1.00167 0.00375757 0)
(1.00314 0.0038353 0)
(1.00491 0.00414468 0)
(1.00461 0.00356644 0)
(1.00072 -0.000390635 0)
(0.999492 -0.000488642 0)
(0.997854 -0.000880362 0)
(1.00119 -0.00032557 0)
(0.998862 0.000188295 0)
(0.996279 -0.00069617 0)
(0.999383 -0.000585899 0)
(1.00116 -9.42416e-05 0)
(0.998572 -7.07404e-05 0)
(0.998623 -0.000271845 0)
(0.999258 -0.000203934 0)
(0.999182 -0.000456395 0)
(0.9994 -0.000201111 0)
(0.999648 -0.000415712 0)
(0.999302 -0.000125475 0)
(0.999424 -0.000286954 0)
(0.999027 3.38473e-05 0)
(0.999384 -0.000133371 0)
(0.999345 0.000323484 0)
(0.999557 0.000324056 0)
(0.999565 0.000843012 0)
(0.999731 0.000940584 0)
(0.999886 0.00151778 0)
(1.00016 0.00168205 0)
(1.00037 0.00231515 0)
(1.0007 0.00267002 0)
(1.00094 0.00367969 0)
(1.0014 0.00431156 0)
(1.0018 0.00537991 0)
(1.00487 0.00589759 0)
(1.0008 -0.000671451 0)
(0.99935 -2.05838e-05 0)
(0.997982 -0.00125074 0)
(1.00117 3.32712e-05 0)
(0.999018 -0.000179527 0)
(0.996144 -9.67436e-05 0)
(0.999521 -0.00112452 0)
(1.00111 0.000335875 0)
(0.998678 -0.000581407 0)
(0.998537 0.000202142 0)
(0.999347 -0.000794363 0)
(0.999147 5.37515e-05 0)
(0.999504 -0.000778789 0)
(0.999636 0.000127924 0)
(0.999422 -0.000697188 0)
(0.999441 0.000260517 0)
(0.999153 -0.000481795 0)