/*--------------------------------*- C++ -*----------------------------------*\
| =========                 |                                                 |
| \\      /  F ield         | OpenFOAM: The Open Source CFD Toolbox           |
|  \\    /   O peration     | Version:  v2006                                 |
|   \\  /    A nd           | Website:  www.openfoam.com                      |
|    \\/     M anipulation  |                                                 |
\*---------------------------------------------------------------------------*/
FoamFile
{
    version     2.0;
    format      ascii;
    class       volScalarField;
    location    "2.5";
    object      p;
}
// * * * * * * * * * * * * * * * * * * * * * * * * * * * * * * * * * * * * * //

dimensions      [0 2 -2 0 0 0 0];


internalField   nonuniform List<scalar> 
26400
(
1.55202e-08
0.002209
0.00207149
0.00228885
0.00171482
0.0019976
0.00162718
0.00194925
0.00165
0.00196269
0.00171034
0.0020154
0.00180174
0.00210277
0.00192808
0.00223863
0.00211242
0.00245329
0.00239409
0.00279339
0.00283066
0.00332815
0.00350814
0.00416407
0.00456635
0.00549597
0.00630313
0.00787275
0.00961586
0.0122489
3.38192e-07
0.00220906
0.00207194
0.00228889
0.00171548
0.0019976
0.00162797
0.00194921
0.00165091
0.00196257
0.00171139
0.00201517
0.00180298
0.00210236
0.00192957
0.00223793
0.00211426
0.00245207
0.00239642
0.00279116
0.00283376
0.00332364
0.00351266
0.00415335
0.00457474
0.00546269
0.0063226
0.00772927
0.00960469
0.0115615
1.31239e-06
0.00220934
0.00207285
0.00228903
0.00171674
0.00199755
0.00162947
0.00194901
0.00165267
0.00196221
0.00171345
0.00201458
0.00180538
0.00210144
0.00193241
0.0022365
0.00211763
0.00244986
0.00240042
0.00278769
0.00283842
0.00331794
0.00351797
0.00414348
0.00458123
0.00544424
0.00631855
0.00765074
0.00948854
0.0109022
3.43471e-06
0.0022102
0.00207409
0.0022895
0.00171837
0.00199765
0.00163137
0.00194888
0.00165491
0.00196185
0.00171602
0.00201392
0.00180833
0.00210032
0.00193581
0.00223471
0.00212155
0.00244702
0.002405
0.00278317
0.00284371
0.00331065
0.00352378
0.0041308
0.00458681
0.00541475
0.00631901
0.00752772
0.00926295
0.0103493
7.19504e-06
0.0022115
0.00207567
0.00229017
0.00172031
0.00199778
0.00163359
0.0019487
0.00165747
0.00196134
0.00171892
0.00201297
0.0018116
0.00209877
0.0019395
0.00223227
0.00212577
0.00244327
0.00240986
0.0027774
0.00284919
0.00330172
0.00352938
0.00411587
0.00458975
0.00538658
0.00628699
0.00743697
0.00891466
0.0099012
1.2766e-05
0.00221289
0.00207756
0.00229075
0.0017225
0.00199765
0.00163599
0.00194817
0.00166023
0.00196039
0.00172202
0.00201148
0.00181509
0.00209652
0.00194348
0.00222896
0.00213033
0.00243846
0.00241507
0.00277041
0.00285475
0.00329168
0.00353449
0.00410283
0.0045886
0.0053743
0.00622051
0.00736071
0.00853241
0.00935002
1.9987e-05
0.00221411
0.0020797
0.002291
0.00172487
0.00199707
0.00163852
0.00194715
0.00166314
0.00195889
0.00172533
0.00200935
0.00181888
0.00209352
0.00194788
0.00222472
0.00213545
0.00243251
0.00242091
0.00276208
0.00286077
0.00327984
0.00353974
0.00408635
0.00458715
0.00533129
0.0061945
0.00719005
0.00837272
0.0089376
2.85224e-05
0.00221503
0.00208207
0.00229085
0.00172743
0.00199598
0.0016412
0.00194559
0.00166627
0.00195683
0.00172896
0.00200662
0.00182311
0.0020898
0.00195285
0.00221961
0.00214124
0.00242549
0.00242741
0.00275253
0.00286717
0.00326592
0.00354426
0.00406864
0.00458438
0.00529529
0.00614054
0.00702647
0.00805094
0.00849386
3.80331e-05
0.00221567
0.00208469
0.00229034
0.00173025
0.00199442
0.00164413
0.00194354
0.00166975
0.00195425
0.00173304
0.00200328
0.0018279
0.00208537
0.00195848
0.00221364
0.0021477
0.00241755
0.00243435
0.00274229
0.00287359
0.00325366
0.00354601
0.00405369
0.00456355
0.00529308
0.00601938
0.00692679
0.0074096
0.00800407
4.82748e-05
0.00221608
0.00208759
0.00228954
0.00173343
0.00199242
0.00164739
0.00194098
0.00167368
0.0019511
0.00173771
0.00199927
0.0018334
0.0020801
0.00196492
0.00220666
0.00215496
0.00240841
0.0024419
0.00273004
0.0028805
0.00323829
0.00354817
0.00403292
0.00455434
0.00524996
0.00594806
0.00679649
0.00709107
0.00745877
5.91195e-05
0.00221633
0.00209081
0.00228851
0.00173707
0.00198999
0.00165107
0.0019379
0.00167816
0.00194734
0.00174304
0.00199454
0.00183965
0.00207398
0.00197212
0.00219871
0.00216283
0.00239835
0.0024497
0.00271739
0.0028867
0.00322253
0.0035491
0.00400905
0.00454334
0.0051798
0.00591622
0.00663112
0.00717454
0.00683776
7.05349e-05
0.00221641
0.0020944
0.00228727
0.00174125
0.00198712
0.00165526
0.00193424
0.00168327
0.0019429
0.00174911
0.00198899
0.0018467
0.00206692
0.00198009
0.00218979
0.0021712
0.00238736
0.00245756
0.00270443
0.00289147
0.00320709
0.00354692
0.00398495
0.00452297
0.0051245
0.0058485
0.00645794
0.00701589
0.00609815
8.2552e-05
0.00221629
0.00209839
0.00228582
0.00174607
0.00198377
0.00166
0.00192993
0.00168906
0.00193769
0.00175597
0.00198259
0.00185455
0.00205896
0.00198871
0.00218004
0.00217982
0.00237559
0.00246493
0.00269147
0.00289423
0.00319218
0.00354124
0.00396373
0.00449028
0.00508046
0.00573908
0.00627611
0.00655573
0.00568289
9.52457e-05
0.00221586
0.00210281
0.00228411
0.0017516
0.00197989
0.00166535
0.00192489
0.00169559
0.00193168
0.00176362
0.00197533
0.00186312
0.00205021
0.00199775
0.0021698
0.00218833
0.00236433
0.00247094
0.00267939
0.00289393
0.00317819
0.00352643
0.00394909
0.00444663
0.00503114
0.00561788
0.006087
0.00587066
0.00509652
0.000108724
0.00221501
0.00210769
0.00228212
0.00175796
0.0019754
0.00167139
0.00191903
0.00170291
0.00192478
0.00177211
0.00196717
0.0018724
0.00204068
0.00200712
0.002159
0.00219663
0.00235314
0.00247554
0.00266768
0.00289188
0.00316309
0.00351433
0.00391256
0.00441072
0.00494504
0.00550348
0.00591724
0.00594786
0.00469374
0.000123125
0.00221354
0.00211307
0.00227978
0.00176526
0.00197023
0.00167817
0.00191228
0.00171105
0.00191696
0.0017814
0.00195816
0.00188221
0.00203056
0.00201643
0.00214809
0.00220398
0.00234267
0.00247799
0.00265711
0.00288698
0.00314776
0.0035015
0.00387333
0.00436872
0.00484654
0.00537416
0.00570484
0.00577773
0.00395898
0.000138606
0.00221127
0.00211898
0.00227706
0.00177357
0.00196436
0.00168571
0.00190461
0.00171996
0.00190829
0.00179133
0.00194854
0.00189214
0.00202063
0.00202494
0.00213866
0.00220905
0.00233438
0.00247656
0.00264947
0.00287571
0.00313638
0.00346871
0.00385002
0.00429808
0.00476581
0.00519835
0.00543892
0.00525749
0.00371299
0.000155373
0.00220793
0.00212545
0.00227389
0.00178302
0.00195772
0.00169402
0.00189599
0.00172957
0.00189881
0.00180178
0.00193852
0.00190185
0.00201118
0.00203236
0.00213074
0.00221174
0.00232798
0.00247232
0.00264288
0.00286209
0.00312732
0.00343168
0.00381782
0.00421878
0.00467491
0.00501661
0.00513077
0.00439711
0.00320798
0.000173648
0.00220325
0.00213251
0.00227023
0.00179369
0.00195027
0.0017031
0.00188638
0.00173983
0.00188853
0.00181258
0.00192824
0.00191099
0.00200152
0.00203834
0.00212364
0.00221265
0.0023213
0.0024681
0.0026323
0.00285154
0.00310031
0.00341049
0.00375864
0.00414732
0.00453387
0.00485324
0.00497376
0.00464093
0.00286285
0.000193619
0.00219694
0.00214012
0.00226609
0.00180559
0.00194213
0.00171278
0.00187608
0.00175035
0.00187816
0.00182295
0.00192054
0.00191927
0.00199471
0.0020422
0.00211848
0.00221126
0.00231556
0.0024618
0.0026215
0.00284142
0.00307433
0.0033853
0.00368979
0.00406379
0.0043772
0.00466668
0.00473611
0.0045088
0.00203211
0.000215749
0.00218856
0.00214835
0.00226132
0.00181892
0.00193311
0.00172318
0.00186476
0.00176125
0.00186697
0.00183286
0.00190806
0.00192719
0.0019876
0.00204461
0.00211408
0.00220757
0.00231085
0.00245079
0.00261159
0.00281903
0.00305715
0.00333729
0.00363772
0.0039563
0.00423555
0.00441059
0.00437243
0.00393841
0.00211916
0.000240032
0.00217785
0.00215704
0.00225615
0.00183346
0.00192374
0.00173368
0.00185356
0.00177148
0.00185812
0.00184097
0.00190428
0.00192999
0.00198684
0.0020406
0.00211709
0.0021969
0.00231577
0.00243106
0.00261506
0.0027794
0.00304371
0.00326186
0.00358365
0.00383165
0.00409931
0.00414063
0.00391876
0.00286762
0.0017649
0.000267172
0.00216426
0.00216625
0.0022504
0.00184943
0.00191384
0.0017444
0.00184175
0.00178127
0.00184867
0.00184936
0.00189723
0.00193411
0.00198124
0.00204307
0.00210847
0.00219994
0.00229887
0.00243551
0.00258159
0.00277908
0.00298212
0.00323915
0.00347737
0.00372121
0.00386896
0.00393251
0.00380994
0.00346711
0.00149864
0.000297392
0.00214742
0.00217581
0.00224415
0.00186673
0.00190359
0.00175504
0.00182934
0.00178961
0.00183859
0.00185576
0.00189154
0.0019368
0.00197625
0.00204344
0.00210142
0.00219689
0.00228601
0.00242685
0.00256515
0.00275869
0.00294644
0.00318652
0.00338906
0.00359029
0.00367751
0.00366562
0.00346879
0.00310651
0.00123188
0.000330773
0.00212711
0.00218538
0.00223785
0.00188479
0.00189459
0.00176469
0.0018212
0.0017942
0.00183788
0.00185466
0.00189658
0.00192985
0.00198515
0.00203014
0.00211336
0.00217472
0.00230008
0.00238147
0.00257081
0.00269225
0.00293509
0.00307298
0.00332286
0.00343079
0.00354276
0.00334195
0.00286808
0.00164187
0.000946042
0.000368008
0.0021028
0.00219488
0.0022313
0.00190372
0.00188572
0.0017742
0.00181121
0.00179895
0.00183192
0.00185751
0.00189098
0.00193446
0.00197486
0.00204141
0.00209384
0.00219173
0.00226841
0.00240372
0.0025131
0.00268907
0.00284804
0.00304336
0.00318379
0.0032886
0.00327756
0.00316842
0.00293466
0.00254863
0.000688571
0.0004098
0.00207402
0.00220417
0.00222445
0.00192327
0.00187586
0.00178257
0.00180298
0.00180146
0.00182957
0.00185769
0.00188963
0.00193258
0.00196735
0.00203785
0.00208222
0.00218644
0.00224432
0.00239695
0.00247906
0.00268263
0.00278061
0.00299181
0.00305194
0.00313676
0.00301659
0.00284867
0.00256342
0.00229695
0.000503368
0.000455098
0.00204191
0.00221209
0.00221966
0.00194221
0.00187294
0.00178542
0.00180138
0.00179485
0.00183833
0.00184543
0.00190744
0.00191337
0.00199931
0.00200257
0.00211763
0.00213568
0.00228232
0.00232628
0.00250114
0.00258013
0.0027653
0.00286076
0.00298453
0.00295818
0.00281889
0.00236216
0.00163234
0.00064367
0.00101299
0.000505199
0.00200475
0.00221936
0.00221394
0.0019644
0.00186793
0.00179235
0.00179377
0.00179737
0.0018328
0.0018494
0.00189984
0.00191653
0.00198444
0.00200298
0.00210155
0.00213211
0.00226046
0.00231148
0.00246884
0.00254607
0.00270969
0.00277892
0.0028761
0.00282322
0.00265637
0.00213051
0.0012974
0.000223525
0.000664054
0.000561515
0.00196022
0.00222411
0.00220601
0.00198332
0.00186599
0.00179729
0.00178692
0.00180052
0.00182542
0.00185774
0.00188835
0.00193009
0.0019666
0.00202343
0.00207249
0.00214841
0.00221867
0.00231522
0.00240958
0.00251931
0.00261712
0.00270132
0.00272253
0.00269681
0.00253475
0.00226867
0.00183764
0.00124256
-0.00089664
0.000620914
0.00192481
0.00222146
0.00221365
0.00199862
0.00186882
0.00179842
0.00178244
0.00179975
0.00182102
0.00186007
0.00188222
0.00193348
0.00195674
0.00202687
0.00205443
0.0021455
0.00218976
0.00229683
0.00236046
0.00246889
0.00253274
0.00260083
0.00260317
0.00256092
0.00244213
0.00224277
0.00174735
0.000648635
-0.00309992
0.000688238
0.00187097
0.0022207
0.00218618
0.00202689
0.00187416
0.00180487
0.00177933
0.0017993
0.00181928
0.00185576
0.00188329
0.00192423
0.00196035
0.00201143
0.00206255
0.00212317
0.00218829
0.00225801
0.00233086
0.00240274
0.00245819
0.00250639
0.00249422
0.00241126
0.0021999
0.00182265
0.00127025
0.000470698
-0.00213823
0.000753734
0.00183965
0.00220105
0.00221456
0.00202201
0.00189261
0.00179369
0.0017941
0.00177892
0.00183721
0.00183061
0.00190675
0.00189542
0.00198471
0.00197339
0.00207313
0.00207917
0.00217597
0.00220011
0.00228531
0.00231838
0.00237905
0.00240278
0.00239746
0.00225466
0.00201765
0.00130537
0.000106597
-0.00154762
-0.00228751
0.00083282
0.00178945
0.00218756
0.00217407
0.00206271
0.00189196
0.00181618
0.00177861
0.00179615
0.00181641
0.00185045
0.00188288
0.00191934
0.00195885
0.0020001
0.00204244
0.00208617
0.00212854
0.00217417
0.00221326
0.00225274
0.00227437
0.00227879
0.00222806
0.00210636
0.00187857
0.00153486
0.00104926
0.000105799
-0.00313888
0.000903908
0.00176252
0.00215538
0.00219306
0.00206155
0.00190975
0.00181875
0.00178128
0.00179005
0.00181161
0.00184417
0.00187623
0.00191146
0.00194665
0.00198481
0.00202508
0.00206544
0.00210671
0.00213828
0.00215697
0.00217533
0.00216075
0.00213518
0.00206002
0.00196176
0.00179133
0.00151683
0.000798038
-0.000893455
-0.00527346
0.000983255
0.0017315
0.00211849
0.00217616
0.00207786
0.00192252
0.00183076
0.00178474
0.00179436
0.00180854
0.00184206
0.00187025
0.00190577
0.00194265
0.00197927
0.0020141
0.00204766
0.00206824
0.00208965
0.00209121
0.0020871
0.00204906
0.00199133
0.0018838
0.00174594
0.00154019
0.00122866
0.000486782
-0.00124635
-0.00567755
0.00107123
0.00171197
0.00207769
0.00214682
0.00209001
0.00193128
0.00184368
0.00178909
0.00179581
0.00180334
0.0018351
0.00186099
0.00189574
0.00192961
0.0019638
0.00199866
0.00202331
0.00203591
0.00204551
0.00202457
0.00199742
0.0019348
0.00185367
0.00169892
0.00145872
0.00108788
0.000629885
6.35249e-05
-0.000851592
-0.0041056
0.00111189
0.00173128
0.00203265
0.00216679
0.00205548
0.00198109
0.00183748
0.00182647
0.00177571
0.00181734
0.00180998
0.00186157
0.00187252
0.00191737
0.00193891
0.00197205
0.00199084
0.0019992
0.00199743
0.00196569
0.00189562
0.00181696
0.00168837
0.00154497
0.0012434
0.000704837
-0.000381851
-0.00188091
-0.00377239
-0.0035008
0.00123743
0.00168468
0.00199948
0.00210342
0.00208495
0.00196582
0.00187793
0.00182064
0.00179683
0.00179848
0.00181689
0.00184273
0.0018722
0.00189769
0.00192717
0.00194174
0.00195945
0.00195138
0.0019378
0.00188549
0.00180914
0.00167564
0.00149201
0.00127203
0.00104338
0.000763192
0.000428449
2.59847e-05
-0.000500432
-0.00339783
0.00125622
0.00173084
0.00195952
0.00212133
0.00204981
0.00200879
0.00186594
0.00184481
0.0017822
0.00180243
0.00179944
0.00183165
0.00185078
0.00187627
0.00190233
0.00191697
0.00192527
0.00191503
0.00187036
0.0018235
0.00172943
0.00162143
0.0014575
0.00125926
0.000861962
0.000120192
-0.00114112
-0.0027772
-0.00470117
-0.00409825
0.00137935
0.00168541
0.00193796
0.00205868
0.00207004
0.0019927
0.00191547
0.0018499
0.00180634
0.00178775
0.00179764
0.00181265
0.00183491
0.00185231
0.00186942
0.00187426
0.00187381
0.00185256
0.00181707
0.0017553
0.00166464
0.0015348
0.00135241
0.0010963
0.000780206
0.000439921
0.000105476
-0.000342621
-0.00157549
-0.00561988
0.00144821
0.00168798
0.00191964
0.00203531
0.00206282
0.00199474
0.00192675
0.00184833
0.00181051
0.00178525
0.00178382
0.00179442
0.00181198
0.00183475
0.00184477
0.00183808
0.00183568
0.0018033
0.00176973
0.00169079
0.00159374
0.00144029
0.00125897
0.00102631
0.000760259
0.000381366
-0.000219093
-0.00136521
-0.00360563
-0.00863344
0.00147482
0.00173118
0.00190487
0.00200736
0.0020373
0.00200081
0.00193633
0.00186991
0.00183026
0.00180342
0.00177979
0.00176933
0.00177882
0.00178487
0.00179633
0.0017973
0.00179111
0.00176148
0.00171474
0.00163081
0.00151639
0.00135083
0.00114519
0.000886077
0.000571229
0.00013257
-0.000559194
-0.00178553
-0.00412377
-0.00914931
0.00161575
0.0016913
0.0018893
0.00197805
0.00202158
0.00198073
0.00193434
0.00187232
0.00182678
0.00179413
0.00177057
0.00176704
0.00176155
0.00175836
0.00176949
0.00175727
0.00175215
0.00170954
0.00165919
0.00156497
0.00144783
0.00126442
0.00101689
0.00065446
0.000200455
-0.000333816
-0.000909103
-0.00168998
-0.00323413
-0.00786763
0.00155551
0.00183118
0.00186502
0.00199194
0.00196426
0.00200786
0.00190419
0.0019005
0.00181184
0.00180889
0.00174835
0.00173868
0.00171884
0.00171996
0.00172779
0.00172464
0.00171704
0.00167765
0.0015953
0.00151345
0.00136743
0.00120381
0.000920562
0.000531771
-0.000195655
-0.00130787
-0.0028448
-0.00470308
-0.00677654
-0.00585077
0.00172448
0.00177374
0.00187232
0.00193115
0.00195839
0.00196237
0.00193687
0.00188744
0.00184856
0.00180882
0.00175271
0.00170337
0.00167914
0.00166787
0.00167223
0.00166552
0.00165303
0.00160964
0.00154376
0.00144461
0.00130792
0.0011139
0.000845732
0.000489536
6.56926e-05
-0.000411515
-0.000995548
-0.0019451
-0.00401411
-0.00925161
0.00173577
0.0017931
0.00189248
0.00193702
0.0019575
0.00194258
0.00191811
0.00187326
0.00182486
0.00178087
0.00173441
0.00170645
0.00166929
0.00163753
0.00162974
0.00160701
0.00159836
0.00155024
0.00149174
0.00138274
0.00125109
0.00105891
0.000828182
0.000511029
9.46073e-05
-0.000577498
-0.00164255
-0.00344662
-0.00651422
-0.0123775
0.00176441
0.001872
0.00190805
0.00192385
0.00192884
0.00191545
0.00190083
0.00186723
0.00183196
0.00177402
0.0017099
0.00165934
0.00161452
0.00159626
0.00157788
0.00156858
0.00154142
0.00150099
0.00142751
0.00132786
0.00118786
0.00100984
0.000770703
0.000449391
-2.15036e-05
-0.00071778
-0.00179582
-0.00354377
-0.00665841
-0.0126793
0.00185497
0.00188654
0.00190737
0.00190461
0.00189389
0.00188721
0.00187489
0.00184826
0.00181888
0.00177609
0.00170621
0.00162969
0.00157996
0.00155235
0.00153943
0.00152064
0.00149052
0.0014399
0.00136522
0.00126091
0.0011217
0.000938104
0.00069237
0.000351932
-0.000135357
-0.00085715
-0.00198225
-0.0038589
-0.00721097
-0.0135513
0.00187132
0.00192216
0.00193969
0.00192562
0.00189686
0.00186923
0.00184017
0.00180939
0.00176925
0.00172318
0.00166759
0.00161389
0.00156674
0.00153191
0.00150316
0.00147431
0.00143472
0.00137798
0.00129792
0.00118982
0.00104613
0.000855579
0.00059803
0.0002417
-0.000268148
-0.00103109
-0.00223952
-0.00425181
-0.00776762
-0.0142572
0.00192954
0.00196724
0.00195986
0.00192484
0.00187909
0.0018353
0.00179736
0.00176406
0.00172925
0.00169128
0.00164625
0.00159751
0.00154872
0.00150483
0.0014643
0.00142431
0.00137562
0.00131186
0.00122567
0.00111181
0.000961043
0.000761193
0.000490605
0.000115238
-0.000426467
-0.00124262
-0.00252754
-0.00463286
-0.00824278
-0.0147811
0.00197119
0.00199936
0.00197852
0.00192768
0.00186607
0.00181004
0.00176487
0.00172983
0.00169593
0.00165865
0.00161555
0.00156845
0.00151916
0.00147069
0.00142253
0.00137264
0.0013148
0.00124275
0.00114915
0.0010275
0.000867946
0.000656624
0.000370324
-2.85017e-05
-0.000604549
-0.00146725
-0.00280813
-0.00497401
-0.00862849
-0.0151843
0.00201273
0.00202869
0.00200155
0.00193641
0.0018572
0.00178679
0.00173205
0.00169091
0.00165485
0.00161913
0.00157895
0.00153428
0.00148516
0.00143337
0.00137859
0.00131984
0.00125248
0.00117118
0.00106876
0.000937904
0.000767768
0.000543092
0.000239032
-0.000183561
-0.000789923
-0.00168857
-0.00306868
-0.00526896
-0.00895096
-0.0155276
0.00205645
0.00206495
0.0020172
0.00193679
0.00184622
0.00176411
0.00169951
0.00165161
0.0016136
0.00157849
0.00154034
0.00149698
0.00144756
0.00139253
0.00133184
0.00126471
0.00118789
0.00109657
0.000984237
0.000842681
0.000660489
0.000421192
9.93898e-05
-0.000344733
-0.000975747
-0.00190106
-0.00330574
-0.00552474
-0.00921784
-0.015801
0.00209647
0.00209218
0.0020338
0.00194021
0.00183661
0.00174304
0.00166892
0.00161451
0.00157312
0.0015369
0.0014992
0.00145629
0.00140597
0.00134779
0.00128145
0.00120634
0.00112011
0.00101854
0.000895309
0.000742003
0.000546877
0.00029306
-4.5136e-05
-0.00050745
-0.00115785
-0.00210237
-0.00352254
-0.00575347
-0.00945633
-0.0160508
0.00213404
0.00212088
0.00204994
0.00194353
0.00182741
0.00172221
0.00163836
0.00157664
0.00153113
0.00149323
0.00145527
0.00141193
0.00136024
0.0012988
0.00122711
0.00114447
0.00104902
0.00093693
0.000802296
0.000636798
0.00042881
0.000161276
-0.000191393
-0.00066887
-0.00133465
-0.00229264
-0.00372403
-0.00596387
-0.00967332
-0.0162759
0.0021692
0.00214891
0.00206574
0.00194687
0.00181866
0.00170126
0.00160702
0.00153763
0.00148777
0.00144765
0.00140881
0.00136437
0.00131083
0.00124588
0.00116892
0.00107894
0.000974506
0.000851978
0.000706067
0.000528614
0.000308348
2.81872e-05
-0.00033719
-0.000827357
-0.00150462
-0.0024727
-0.00391306
-0.00616092
-0.00987622
-0.01648
0.00219782
0.00217204
0.00208372
0.00195459
0.00181195
0.00168059
0.00157496
0.00149803
0.00144325
0.00140063
0.00135994
0.00131396
0.00125789
0.00118932
0.00110689
0.00100986
0.000896585
0.000764119
0.000607295
0.000418607
0.000186799
-0.000104702
-0.000481177
-0.000981585
-0.00166765
-0.00264319
-0.00409038
-0.00634487
-0.0100684
-0.016683
0.00222499
0.00219285
0.00209933
0.00196091
0.00180504
0.00166036
0.00154382
0.00145886
0.00139849
0.00135226
0.00130895
0.00126069
0.00120168
0.00112916
0.00104127
0.000937313
0.000815629
0.000673723
0.000506707
0.00030755
6.52289e-05
-0.000236453
-0.000622538
-0.00113102
-0.00182386
-0.0028049
-0.0042565
-0.00651468
-0.010243
-0.0168661
0.00225421
0.0022175
0.00211007
0.00195916
0.00179406
0.00164027
0.00151436
0.00142067
0.00135376
0.00130266
0.00125609
0.00120476
0.00114254
0.00106572
0.000972482
0.000861702
0.000732156
0.000581338
0.000404986
0.00019618
-5.55706e-05
-0.00036633
-0.000760196
-0.0012752
-0.00197323
-0.00295831
-0.00441228
-0.00667036
-0.0103935
-0.0170067
0.00227831
0.00223565
0.002121
0.00196055
0.00178478
0.00162046
0.00148465
0.00138227
0.00130829
0.00125193
0.00120138
0.00114654
0.00108063
0.000999402
0.000900782
0.000783535
0.000646549
0.000487558
0.000302637
8.51759e-05
-0.000175018
-0.000493327
-0.000893544
-0.00141373
-0.0021157
-0.00310338
-0.00455836
-0.00681602
-0.0105392
-0.0171576
0.00229795
0.00225089
0.00213194
0.00196368
0.00177662
0.00160039
0.00145398
0.00134295
0.00126198
0.00120016
0.00114509
0.00108632
0.00101631
0.00093058
0.000826616
0.00070325
0.000559315
0.00039289
0.000200225
-2.49069e-05
-0.000292253
-0.000616725
-0.0010221
-0.00154633
-0.0022513
-0.00324083
-0.0046968
-0.00695493
-0.0106789
-0.0172985
0.00231758
0.00226748
0.00213988
0.00196198
0.00176544
0.00157933
0.00142317
0.00130338
0.00121525
0.0011476
0.00108771
0.00102455
0.000950227
0.000859799
0.000750645
0.000621426
0.000471116
0.000297914
9.8415e-05
-0.000133345
-0.000406544
-0.000736031
-0.00114547
-0.00167283
-0.00238
-0.00337102
-0.00482793
-0.00708674
-0.0108108
-0.0174292
0.00233361
0.00227963
0.00214638
0.00196056
0.00175443
0.00155821
0.00139228
0.00126371
0.00116822
0.00109451
0.00102945
0.000961611
0.000882708
0.000787548
0.000673316
0.000538621
0.000382466
0.000203217
-2.3035e-06
-0.000239536
-0.000517527
-0.00085102
-0.00126363
-0.00179327
-0.00250191
-0.00349371
-0.004951
-0.00721011
-0.0109346
-0.0175526
0.00234634
0.002289
0.00215149
0.00195888
0.00174348
0.00153695
0.00136111
0.00122396
0.00112105
0.00104107
0.000970527
0.000897778
0.000814134
0.000714261
0.000595121
0.000455342
0.000293905
0.000109355
-0.000101291
-0.000343073
-0.000624978
-0.000961635
-0.00137662
-0.00190778
-0.00261707
-0.0036087
-0.00506521
-0.00732339
-0.0110482
-0.0176708
0.0023584
0.00229818
0.00215396
0.00195327
0.00172941
0.00151421
0.00132976
0.00118433
0.001074
0.000987544
0.000911396
0.000833562
0.000745155
0.000640591
0.000516767
0.000372238
0.000206066
1.68443e-05
-0.000198001
-0.0004435
-0.000728523
-0.00106763
-0.0014843
-0.0020163
-0.00272552
-0.00371617
-0.0051708
-0.00742632
-0.0111479
-0.0177683
0.00236813
0.00230423
0.00215432
0.0019464
0.00171452
0.00149104
0.00129832
0.00114488
0.0010272
0.00093417
0.000852294
0.00076935
0.000676206
0.000567062
0.000438783
0.000289859
0.000119425
-7.36967e-05
-0.000291997
-0.000540496
-0.000827959
-0.00116889
-0.00158665
-0.00211895
-0.0028276
-0.00381676
-0.00526899
-0.00752143
-0.0112403
-0.0178614
0.00237514
0.00230831
0.0021532
0.00193859
0.00169908
0.00146747
0.00126659
0.00110532
0.000980469
0.000881031
0.000793498
0.000705458
0.000607639
0.000494088
0.000361623
0.000208714
3.45693e-05
-0.000161856
-0.000383021
-0.000633923
-0.000923258
-0.00126547
-0.00168385
-0.00221607
-0.00292396
-0.00391175
-0.00536216
-0.00761255
-0.0113292
-0.0179491
0.00237915
0.00230999
0.00215081
0.00193031
0.00168343
0.00144367
0.00123466
0.0010658
0.000934037
0.000828414
0.000735318
0.000642295
0.000539927
0.0004222
0.000285849
0.000129345
-4.79734e-05
-0.000247165
-0.000470696
-0.000723503
-0.00101426
-0.00135733
-0.00177601
-0.00230798
-0.00301511
-0.00400179
-0.00545105
-0.00770088
-0.0114189
-0.0180429
0.00238081
0.00230958
0.0021467
0.00192079
0.00166699
0.00141952
0.00120276
0.00102665
0.000888236
0.000776636
0.000678159
0.00058033
0.000473623
0.000351977
0.000212049
5.24346e-05
-0.000127594
-0.000329103
-0.000554577
-0.000808895
-0.00110071
-0.00144438
-0.00186319
-0.00239485
-0.00310136
-0.00408725
-0.00553579
-0.00778522
-0.0115033
-0.0181277
0.00238163
0.00230813
0.00214085
0.00190924
0.00164906
0.00139481
0.00117108
0.000988151
0.000843398
0.000726053
0.000622432
0.000520014
0.000409228
0.000283967
0.000140907
-2.14189e-05
-0.000203774
-0.000407258
-0.000634331
-0.000889866
-0.00118249
-0.00152655
-0.00194538
-0.00247673
-0.00318268
-0.00416784
-0.0056156
-0.00786423
-0.0115814
-0.018205
0.00238041
0.00230473
0.00213359
0.00189685
0.00163073
0.00137009
0.00113986
0.00095057
0.000799862
0.000677086
0.000568611
0.000461891
0.000347343
0.000218814
7.29479e-05
-9.17854e-05
-0.00027618
-0.000481356
-0.000709761
-0.000966265
-0.00125948
-0.00160379
-0.0020225
-0.00255345
-0.00325871
-0.00424297
-0.00568959
-0.00793691
-0.0116528
-0.018276
0.00237759
0.00229998
0.00212542
0.00188404
0.00161238
0.00134572
0.00110938
0.000914166
0.00075792
0.000630104
0.000517126
0.000406448
0.000288457
0.000156962
8.55411e-06
-0.000158334
-0.000344522
-0.000551141
-0.000780643
-0.00103789
-0.00133151
-0.00167588
-0.00209433
-0.00262471
-0.00332911
-0.00431225
-0.00575756
-0.00800353
-0.0117184
-0.0183416
0.00237356
0.00229421
0.0021165
0.00187086
0.00159412
0.00132192
0.00107995
0.000879292
0.000717952
0.000585517
0.00046843
0.000354154
0.000233041
9.88646e-05
-5.18277e-05
-0.000220628
-0.000408376
-0.000616214
-0.000846599
-0.0011044
-0.00139825
-0.00174252
-0.00216057
-0.00269024
-0.00339369
-0.00437567
-0.00581974
-0.00806457
-0.0117787
-0.0184022
0.00236869
0.00228774
0.00210714
0.0018576
0.00157625
0.00129905
0.00105198
0.000846377
0.000680424
0.000543822
0.000423041
0.000305536
0.000181628
4.50562e-05
-0.000107659
-0.000278134
-0.000467221
-0.000676074
-0.000907161
-0.00116536
-0.00145931
-0.00180339
-0.00222097
-0.00274994
-0.00345246
-0.00443337
-0.00587634
-0.0081202
-0.0118338
-0.0184575
0.00236332
0.00228092
0.00209772
0.00184468
0.0015592
0.00127753
0.00102591
0.000815907
0.000645851
0.000505553
0.000381506
0.000261145
0.000134769
-3.91318e-06
-0.000158401
-0.000330328
-0.000520557
-0.000730254
-0.0009619
-0.00122039
-0.00151437
-0.00185824
-0.00227541
-0.00280376
-0.00350552
-0.00448556
-0.00592757
-0.00817052
-0.0118835
-0.0185075
0.00235796
0.00227431
0.00208876
0.00183259
0.00154347
0.00125786
0.00100225
0.000788422
0.000614841
0.000471373
0.000344511
0.000221687
9.3166e-05
-4.73579e-05
-0.000203391
-0.00037658
-0.000567791
-0.000778206
-0.00101031
-0.00126903
-0.00156302
-0.00190672
-0.00232356
-0.00285146
-0.00355268
-0.00453212
-0.00597353
-0.00821589
-0.0119283
-0.0185523
0.00235273
0.00226812
0.00208076
0.00182201
0.00152974
0.0012407
0.000981635
0.000764573
0.000588078
0.000442047
0.000312922
0.000188099
5.78147e-05
-8.42394e-05
-0.000241571
-0.000415817
-0.000607847
-0.000818845
-0.00105132
-0.0013102
-0.00160419
-0.00194775
-0.00236433
-0.00289192
-0.00359279
-0.00457193
-0.00601313
-0.00825549
-0.0119683
-0.0185929
0.00234847
0.00226277
0.00207388
0.0018131
0.00151831
0.00122649
0.000964717
0.000745234
0.000566639
0.000418783
0.000288026
0.000161721
3.00976e-05
-0.000113138
-0.000271474
-0.000446528
-0.000639165
-0.000850571
-0.00108327
-0.00134221
-0.00163613
-0.0019795
-0.00239583
-0.00292313
-0.00362374
-0.00460268
-0.00604384
-0.00828634
-0.0119995
-0.0186245
0.00234702
0.00226049
0.00206883
0.00180444
0.00150626
0.00121184
0.000948223
0.000727289
0.000547318
0.00039798
0.000265633
0.000137676
4.44355e-06
-0.000140295
-0.000299961
-0.000476155
-0.000669722
-0.000881858
-0.00111509
-0.00137438
-0.00166846
-0.00201181
-0.00242792
-0.00295479
-0.00365476
-0.00463288
-0.00607317
-0.00831505
-0.0120286
-0.0186569
0.0142849
0.0139875
0.0124999
0.0103296
0.00753521
0.00424653
0.000628156
-0.00295809
-0.00579393
-0.00723553
-0.00730018
-0.00654113
-0.00553209
-0.00459941
-0.00387104
-0.0033659
-0.00304936
-0.00286942
-0.00277734
-0.00273533
-0.00271723
-0.00270664
-0.00269441
-0.0026765
-0.00265211
-0.00262229
-0.00258893
-0.00255404
-0.00251938
-0.00248622
-0.00245535
-0.00242713
-0.0024016
-0.00237863
-0.00235802
-0.00233956
-0.00232307
-0.00230843
-0.00229553
-0.00228429
-0.00227461
-0.0022664
-0.00225956
-0.00225397
-0.00224952
-0.00224612
-0.00224367
-0.0022421
-0.00224135
-0.00224137
-0.00224213
-0.0022436
-0.00224576
-0.00224858
-0.00225204
-0.00225613
-0.00226082
-0.00226609
-0.00227191
-0.00227827
-0.00228515
-0.00229253
-0.00230038
-0.00230869
-0.00231743
-0.00232659
-0.00233615
-0.00234611
-0.00235643
-0.00236712
-0.00237815
-0.00238952
-0.00240122
-0.00241324
-0.00242556
-0.00243819
-0.0024511
-0.0024643
-0.00247777
-0.00249151
-0.00250551
-0.00251976
-0.00253426
-0.002549
-0.00256397
-0.00257917
-0.00259459
-0.00261023
-0.00262609
-0.00264215
-0.00265842
-0.00267489
-0.00269155
-0.00270841
-0.00272544
-0.00274267
-0.00276007
-0.00277765
-0.00279539
-0.0028133
-0.00283137
-0.00284961
-0.00286801
-0.00288657
-0.00290527
-0.00292413
-0.00294314
-0.00296229
-0.00298158
-0.00300102
-0.00302059
-0.00304029
-0.00306012
-0.00308009
-0.00310018
-0.0031204
-0.00314075
-0.00316122
-0.00318182
-0.00320254
-0.00322337
-0.00324433
-0.0032654
-0.00328659
-0.00330788
-0.00332929
-0.0033508
-0.00337243
-0.00339415
-0.00341599
-0.00343792
-0.00345996
-0.00348209
-0.00350433
-0.00352665
-0.00354908
-0.00357159
-0.0035942
-0.00361689
-0.00363969
-0.00366256
-0.00368553
-0.00370857
-0.00373172
-0.00375493
-0.00377824
-0.00380161
-0.00382508
-0.00384862
-0.00387226
-0.00389596
-0.00391976
-0.00394362
-0.00396757
-0.00399158
-0.00401569
-0.00403984
-0.00406409
-0.00408839
-0.00411278
-0.00413723
-0.00416176
-0.00418634
-0.00421102
-0.00423573
-0.00426054
-0.00428539
-0.00431032
-0.00433531
-0.00436037
-0.00438549
-0.00441068
-0.00443592
-0.00446124
-0.0044866
-0.00451204
-0.00453752
-0.00456307
-0.00458867
-0.00461434
-0.00464005
-0.00466584
-0.00469166
-0.00471756
-0.0047435
-0.00476952
-0.00479557