/*--------------------------------*- C++ -*----------------------------------*\
| =========                 |                                                 |
| \\      /  F ield         | OpenFOAM: The Open Source CFD Toolbox           |
|  \\    /   O peration     | Version:  v2006                                 |
|   \\  /    A nd           | Website:  www.openfoam.com                      |
|    \\/     M anipulation  |                                                 |
\*---------------------------------------------------------------------------*/
FoamFile
{
    version     2.0;
    format      ascii;
    class       surfaceScalarField;
    location    "2.5";
    object      phi;
}
// * * * * * * * * * * * * * * * * * * * * * * * * * * * * * * * * * * * * * //

dimensions      [0 3 -1 0 0 0 0];
oriented        oriented;


internalField   nonuniform List<scalar> 
52390
(
1.17004e-06
-3.19025e-07
1.17007e-06
2.801e-07
1.17314e-06
-2.57153e-07
1.17327e-06
2.18082e-07
1.17678e-06
-2.07568e-07
1.1769e-06
1.6824e-07
1.18032e-06
-1.67621e-07
1.18021e-06
1.28982e-07
1.18342e-06
-1.3555e-07
1.18309e-06
9.85391e-08
1.1861e-06
-1.09797e-07
1.18556e-06
7.48838e-08
1.18841e-06
-8.91082e-08
1.18764e-06
5.63634e-08
1.19034e-06
-7.24479e-08
1.18931e-06
4.19101e-08
1.19192e-06
-5.89475e-08
1.19058e-06
3.07662e-08
1.19314e-06
-4.7894e-08
1.19139e-06
2.22893e-08
1.19399e-06
-3.86708e-08
1.19166e-06
1.59279e-08
1.19438e-06
-3.06011e-08
1.19129e-06
1.11988e-08
1.19421e-06
-2.25962e-08
1.19028e-06
7.41019e-09
1.19284e-06
-1.15033e-08
1.1866e-06
4.42418e-09
1.18213e-06
1.86567e-08
2.36635e-08
1.15365e-06
1.2271e-06
-3.21859e-07
1.22767e-06
2.79529e-07
1.23154e-06
-2.61028e-07
1.23222e-06
2.17405e-07
1.23607e-06
-2.11423e-07
1.23654e-06
1.67777e-07
1.23993e-06
-1.71013e-07
1.24021e-06
1.28705e-07
1.2431e-06
-1.38445e-07
1.24331e-06
9.83264e-08
1.2457e-06
-1.12182e-07
1.24594e-06
7.46438e-08
1.24779e-06
-9.09546e-08
1.24815e-06
5.60022e-08
1.24939e-06
-7.36878e-08
1.24999e-06
4.13118e-08
1.2505e-06
-5.94641e-08
1.25149e-06
2.9782e-08
1.2511e-06
-4.75094e-08
1.25266e-06
2.07282e-08
1.25112e-06
-3.71286e-08
1.25349e-06
1.35603e-08
1.25045e-06
-2.7566e-08
1.25385e-06
7.80657e-09
1.24897e-06
-1.7725e-08
1.2534e-06
2.9845e-09
1.24636e-06
-4.46258e-09
1.24967e-06
1.11329e-09
1.23779e-06
3.05381e-08
3.89553e-08
1.2225e-06
1.28548e-06
-3.2456e-07
1.28904e-06
2.75975e-07
1.29181e-06
-2.63797e-07
1.29501e-06
2.14206e-07
1.29717e-06
-2.13587e-07
1.30002e-06
1.64928e-07
1.30129e-06
-1.72284e-07
1.30395e-06
1.26045e-07
1.30437e-06
-1.38864e-07
1.30705e-06
9.56457e-08
1.30664e-06
-1.11779e-07
1.30948e-06
7.18064e-08
1.30826e-06
-8.97363e-08
1.31136e-06
5.29097e-08
1.30931e-06
-7.16427e-08
1.31273e-06
3.7896e-08
1.30984e-06
-5.6582e-08
1.31361e-06
2.60213e-08
1.30991e-06
-4.38089e-08
1.31396e-06
1.66756e-08
1.30951e-06
-3.26857e-08
1.31369e-06
9.38769e-09
1.30869e-06
-2.25678e-08
1.3126e-06
3.89699e-09
1.30748e-06
-1.26015e-08
1.3103e-06
1.60218e-10
1.30594e-06
-1.07078e-10
1.30352e-06
3.53686e-09
1.30063e-06
3.34284e-08
6.14546e-08
1.27813e-06
1.34585e-06
-3.2631e-07
1.35199e-06
2.69841e-07
1.35318e-06
-2.64989e-07
1.35868e-06
2.08703e-07
1.35889e-06
-2.13798e-07
1.36386e-06
1.59961e-07
1.36297e-06
-1.71397e-07
1.36756e-06
1.21458e-07
1.36577e-06
-1.3707e-07
1.37016e-06
9.12487e-08
1.36763e-06
-1.09248e-07
1.37192e-06
6.75139e-08
1.36881e-06
-8.66174e-08
1.37301e-06
4.87079e-08
1.36944e-06
-6.80757e-08
1.37352e-06
3.38207e-08
1.36965e-06
-5.27115e-08
1.37351e-06
2.21564e-08
1.36949e-06
-3.97881e-08
1.37302e-06
1.31494e-08
1.369e-06
-2.8669e-08
1.372e-06
6.38156e-09
1.36817e-06
-1.87351e-08
1.37034e-06
1.73053e-09
1.36708e-06
-9.34147e-09
1.36751e-06
-2.7323e-10
1.36578e-06
1.62775e-09
1.36055e-06
8.75972e-09
1.36006e-06
3.39265e-08
8.46605e-08
1.33685e-06
1.40861e-06
-3.26564e-07
1.41612e-06
2.62329e-07
1.41569e-06
-2.64555e-07
1.42242e-06
2.01969e-07
1.42105e-06
-2.12424e-07
1.42705e-06
1.53963e-07
1.42473e-06
-1.69086e-07
1.43006e-06
1.16129e-07
1.42712e-06
-1.34129e-07
1.43194e-06
8.6432e-08
1.42863e-06
-1.05937e-07
1.433e-06
6.31417e-08
1.42952e-06
-8.31324e-08
1.43347e-06
4.47582e-08
1.42995e-06
-6.45586e-08
1.43348e-06
3.02863e-08
1.43003e-06
-4.92563e-08
1.43314e-06
1.90412e-08
1.4298e-06
-3.64482e-08
1.43248e-06
1.04751e-08
1.42928e-06
-2.54677e-08
1.43144e-06
4.22241e-09
1.42844e-06
-1.57361e-08
1.42981e-06
3.53896e-10
1.42733e-06
-6.86198e-09
1.42708e-06
-2.28946e-11
1.42553e-06
3.17796e-09
1.4211e-06
1.31964e-08
1.4182e-06
3.682e-08
1.106e-07
1.39226e-06
1.47434e-06
-3.25227e-07
1.48192e-06
2.54748e-07
1.48019e-06
-2.62824e-07
1.48694e-06
1.95214e-07
1.48463e-06
-2.10113e-07
1.49056e-06
1.48033e-07
1.48768e-06
-1.66204e-07
1.49278e-06
1.11026e-07
1.48962e-06
-1.30964e-07
1.49406e-06
8.19879e-08
1.49083e-06
-1.02703e-07
1.49473e-06
5.92406e-08
1.49154e-06
-7.99453e-08
1.49499e-06
4.13135e-08
1.49189e-06
-6.14608e-08
1.49496e-06
2.72212e-08
1.49194e-06
-4.62441e-08
1.49468e-06
1.63059e-08
1.49173e-06
-3.35017e-08
1.49414e-06
8.07104e-09
1.49125e-06
-2.25785e-08
1.49322e-06
2.2458e-09
1.49046e-06
-1.29705e-08
1.49173e-06
-9.21461e-10
1.48921e-06
-4.33415e-09
1.48943e-06
-2.42902e-10
1.4865e-06
6.10082e-09
1.4843e-06
1.54025e-08
1.48319e-06
3.79234e-08
6.42172e-08
1.52958e-06
1.54354e-06
-3.22553e-07
1.55035e-06
2.47943e-07
1.54774e-06
-2.60218e-07
1.55378e-06
1.89175e-07
1.55103e-06
-2.07364e-07
1.55634e-06
1.42722e-07
1.55335e-06
-1.63209e-07
1.55789e-06
1.06481e-07
1.55482e-06
-1.27894e-07
1.5588e-06
7.8013e-08
1.55576e-06
-9.96682e-08
1.55931e-06
5.56921e-08
1.55634e-06
-7.69747e-08
1.55956e-06
3.80901e-08
1.55664e-06
-5.85376e-08
1.55961e-06
2.42533e-08
1.55671e-06
-4.33423e-08
1.55943e-06
1.3578e-08
1.55655e-06
-3.06172e-08
1.55898e-06
5.64187e-09
1.55615e-06
-1.97492e-08
1.55811e-06
2.89935e-10
1.55546e-06
-1.03245e-08
1.55656e-06
-2.02233e-09
1.55445e-06
-2.22092e-09
1.55373e-06
4.72863e-10
1.55259e-06
7.24339e-09
1.54768e-06
2.03129e-08
1.54341e-06
4.21962e-08
9.51324e-08
1.51249e-06
1.61649e-06
-3.18912e-07
1.62233e-06
2.42105e-07
1.61913e-06
-2.57021e-07
1.62433e-06
1.83968e-07
1.62132e-06
-2.04351e-07
1.62603e-06
1.38019e-07
1.62295e-06
-1.60136e-07
1.62708e-06
1.02356e-07
1.62399e-06
-1.24809e-07
1.62773e-06
7.42789e-08
1.62468e-06
-9.66166e-08
1.62814e-06
5.22284e-08
1.62512e-06
-7.39531e-08
1.62837e-06
3.48361e-08
1.62536e-06
-5.55296e-08
1.62843e-06
2.11918e-08
1.62543e-06
-4.03474e-08
1.62825e-06
1.07537e-08
1.62531e-06
-2.76734e-08
1.62778e-06
3.17749e-09
1.62498e-06
-1.69534e-08
1.62684e-06
-1.56938e-09
1.62435e-06
-7.83606e-09
1.62517e-06
-2.84482e-09
1.62338e-06
-4.30293e-10
1.62202e-06
1.83382e-09
1.62157e-06
7.69247e-09
1.61646e-06
2.54257e-08
1.61168e-06
4.69732e-08
1.3172e-07
1.57509e-06
1.69326e-06
-3.14593e-07
1.6984e-06
2.36956e-07
1.69471e-06
-2.5333e-07
1.69936e-06
1.79318e-07
1.69604e-06
-2.01032e-07
1.70043e-06
1.33634e-07
1.69713e-06
-1.56838e-07
1.70111e-06
9.8373e-08
1.69781e-06
-1.21507e-07
1.70154e-06
7.05469e-08
1.69826e-06
-9.33352e-08
1.70182e-06
4.86702e-08
1.69856e-06
-7.06973e-08
1.70196e-06
3.14418e-08
1.69874e-06
-5.23059e-08
1.70193e-06
1.79957e-08
1.69877e-06
-3.71869e-08
1.70167e-06
7.85084e-09
1.69865e-06
-2.46487e-08
1.70109e-06
7.32262e-10
1.69832e-06
-1.41771e-08
1.70007e-06
-3.32053e-09
1.6976e-06
-5.3684e-09
1.69857e-06
-3.81187e-09
1.69573e-06
2.40619e-09
1.69645e-06
1.11568e-09
1.69128e-06
1.28647e-08
1.69577e-06
2.09341e-08
1.69683e-06
4.59158e-08
8.22763e-08
1.74627e-06
1.77389e-06
-3.0976e-07
1.77878e-06
2.32061e-07
1.77459e-06
-2.49132e-07
1.77906e-06
1.74848e-07
1.77533e-06
-1.97304e-07
1.7797e-06
1.29257e-07
1.77604e-06
-1.53177e-07
1.78012e-06
9.42967e-08
1.77646e-06
-1.17847e-07
1.78035e-06
6.6656e-08
1.77673e-06
-8.97097e-08
1.78047e-06
4.49248e-08
1.7769e-06
-6.71304e-08
1.78047e-06
2.78736e-08
1.777e-06
-4.8832e-08
1.78031e-06
1.46826e-08
1.77699e-06
-3.38698e-08
1.77991e-06
4.93476e-09
1.77687e-06
-2.16061e-08
1.77916e-06
-1.56505e-09
1.77654e-06
-1.15548e-08
1.77798e-06
-4.75679e-09
1.7758e-06
-3.19165e-09
1.7763e-06
-4.31126e-09
1.77371e-06
4.99785e-09
1.77428e-06
5.50187e-10
1.76816e-06
1.89791e-08
1.77455e-06
1.45399e-08
1.77619e-06
4.42844e-08
2.64986e-08
1.83196e-06
1.85846e-06
-3.04474e-07
1.86349e-06
2.27038e-07
1.85873e-06
-2.44379e-07
1.86333e-06
1.70253e-07
1.85911e-06
-1.93085e-07
1.86371e-06
1.24654e-07
1.85961e-06
-1.49072e-07
1.86394e-06
8.99642e-08
1.85986e-06
-1.13766e-07
1.86401e-06
6.25047e-08
1.86e-06
-8.56997e-08
1.86398e-06
4.09415e-08
1.86009e-06
-6.32414e-08
1.86384e-06
2.4126e-08
1.86014e-06
-4.51301e-08
1.86353e-06
1.12899e-08
1.86012e-06
-3.04543e-08
1.86297e-06
2.08327e-09
1.86e-06
-1.86363e-08
1.86204e-06
-3.6067e-09
1.85969e-06
-9.20541e-09
1.86066e-06
-5.72461e-09
1.85898e-06
-1.5135e-09
1.85858e-06
-3.91443e-09
1.85739e-06
6.18728e-09
1.85529e-06
2.6547e-09
1.8536e-06
2.0672e-08
1.84858e-06
1.95602e-08
1.83879e-06
5.40721e-08
6.23915e-08
1.8029e-06
1.94712e-06
-2.98752e-07
1.95253e-06
2.21626e-07
1.94717e-06
-2.39019e-07
1.9521e-06
1.65327e-07
1.94733e-06
-1.88322e-07
1.95232e-06
1.19671e-07
1.94772e-06
-1.4448e-07
1.95242e-06
8.52689e-08
1.94789e-06
-1.09236e-07
1.95237e-06
5.80276e-08
1.94797e-06
-8.13013e-08
1.95222e-06
3.66928e-08
1.94803e-06
-5.90529e-08
1.95194e-06
2.02111e-08
1.94807e-06
-4.12555e-08
1.95149e-06
7.87082e-09
1.94807e-06
-2.70321e-08
1.95076e-06
-6.09036e-10
1.94798e-06
-1.58594e-08
1.94966e-06
-5.28561e-09
1.94769e-06
-7.23746e-09
1.94811e-06
-6.13781e-09
1.94699e-06
-3.99523e-10
1.94578e-06
-2.70629e-09
1.94543e-06
6.54549e-09
1.94181e-06
6.27486e-09
1.94276e-06
1.97122e-08
1.9316e-06
3.07221e-08
1.92697e-06
5.87006e-08
9.36272e-08
1.89574e-06
2.04003e-06
-2.92591e-07
2.046e-06
2.15658e-07
2.03998e-06
-2.33003e-07
2.04537e-06
1.5994e-07
2.04002e-06
-1.82972e-07
2.04548e-06
1.14209e-07
2.04037e-06
-1.39376e-07
2.0455e-06
8.01434e-08
2.04052e-06
-1.04253e-07
2.04535e-06
5.319e-08
2.04058e-06
-7.6532e-08
2.0451e-06
3.21794e-08
2.04066e-06
-5.46134e-08
2.0447e-06
1.61695e-08
2.04074e-06
-3.72937e-08
2.0441e-06
4.50974e-09
2.0408e-06
-2.3731e-08
2.0432e-06
-3.01509e-09
2.04077e-06
-1.34252e-08
2.04197e-06
-6.48173e-09
2.04049e-06
-5.76368e-09
2.0403e-06
-5.94406e-09
2.03965e-06
2.53321e-10
2.03811e-06
-1.16842e-09
2.03736e-06
7.29536e-09
2.03418e-06
9.45139e-09
2.03308e-06
2.08094e-08
2.02604e-06
3.77706e-08
2.01454e-06
7.01991e-08
1.26886e-07
1.98128e-06
2.13739e-06
-2.85979e-07
2.14402e-06
2.09024e-07
2.1373e-06
-2.26283e-07
2.14324e-06
1.54005e-07
2.13726e-06
-1.76998e-07
2.14327e-06
1.08203e-07
2.13763e-06
-1.33741e-07
2.14323e-06
7.45498e-08
2.13779e-06
-9.88189e-08
2.143e-06
4.79853e-08
2.13789e-06
-7.14251e-08
2.14264e-06
2.74296e-08
2.13802e-06
-4.99902e-08
2.14212e-06
1.20682e-08
2.13817e-06
-3.33477e-08
2.14138e-06
1.30767e-09
2.13832e-06
-2.0672e-08
2.14033e-06
-5.03406e-09
2.13835e-06
-1.14355e-08
2.139e-06
-7.14047e-09
2.138e-06
-4.76421e-09
2.13748e-06
-5.42244e-09
2.1366e-06
1.13932e-09
2.13576e-06
-3.27573e-10
2.13352e-06
9.52938e-09
2.13166e-06
1.13128e-08
2.12603e-06
2.64414e-08
2.132e-06
3.17975e-08
2.15564e-06
4.65608e-08
5.19963e-08
2.23053e-06
2.23941e-06
-2.78902e-07
2.24679e-06
2.01646e-07
2.23931e-06
-2.18807e-07
2.24586e-06
1.4746e-07
2.23923e-06
-1.70365e-07
2.24582e-06
1.01612e-07
2.23964e-06
-1.27564e-07
2.24572e-06
6.84756e-08
2.23985e-06
-9.29545e-08
2.2454e-06
4.24368e-08
2.24001e-06
-6.60366e-08
2.24493e-06
2.25081e-08
2.24022e-06
-4.52824e-08
2.24427e-06
8.0181e-09
2.24049e-06
-2.95634e-08
2.24338e-06
-1.57826e-09
2.24074e-06
-1.80339e-08
2.2422e-06
-6.50046e-09
2.24083e-06
-1.00571e-08
2.24079e-06
-7.10862e-09
2.24046e-06
-4.4314e-09
2.23912e-06
-4.07844e-09
2.23923e-06
1.02364e-09
2.23688e-06
2.02881e-09
2.23627e-06
1.01366e-08
2.23286e-06
1.47254e-08
2.23045e-06
2.88516e-08
2.22341e-06
3.88365e-08
2.20737e-06
6.25994e-08
8.28507e-08
2.17651e-06
2.34632e-06
-2.71341e-07
2.3545e-06
1.93462e-07
2.34622e-06
-2.10528e-07
2.35342e-06
1.40259e-07
2.3461e-06
-1.63044e-07
2.3533e-06
9.44138e-08
2.34658e-06
-1.20847e-07
2.35313e-06
6.19287e-08
2.34687e-06
-8.66933e-08
2.35271e-06
3.65911e-08
2.34712e-06
-6.04412e-08
2.35212e-06
1.7505e-08
2.34744e-06
-4.06078e-08
2.35131e-06
4.15089e-09
2.34785e-06
-2.60965e-08
2.35026e-06
-3.98928e-09
2.3482e-06
-1.59746e-08
2.34899e-06
-7.29279e-09
2.3483e-06
-9.37242e-09
2.34755e-06
-6.35354e-09
2.3479e-06
-4.78669e-09
2.34559e-06
-1.76861e-09
2.347e-06
-3.8147e-10
2.34274e-06
6.28533e-09
2.34444e-06
8.4372e-09
2.33856e-06
2.06106e-08
2.33943e-06
2.79745e-08
2.32462e-06
5.36523e-08
2.31507e-06
7.2145e-08
1.07094e-07
2.29083e-06
2.45834e-06
-2.63284e-07
2.46737e-06
1.84433e-07
2.45825e-06
-2.01409e-07
2.46613e-06
1.32379e-07
2.45811e-06
-1.55025e-07
2.46591e-06
8.66118e-08
2.45868e-06
-1.13611e-07
2.46566e-06
5.49482e-08
2.45906e-06
-8.00995e-08
2.46512e-06
3.05324e-08
2.45943e-06
-5.47479e-08
2.46439e-06
1.25449e-08
2.45989e-06
-3.61058e-08
2.46343e-06
6.02688e-10
2.46041e-06
-2.30706e-08
2.46226e-06
-5.84275e-09
2.46081e-06
-1.45214e-08
2.46101e-06
-7.48998e-09
2.46076e-06
-9.1266e-09
2.45978e-06
-5.37453e-09
2.45995e-06
-4.95897e-09
2.4584e-06
-2.16579e-10
2.45818e-06
-1.58539e-10
2.45599e-06
8.47146e-09
2.45451e-06
9.91466e-09
2.45136e-06
2.37675e-08
2.44882e-06
3.0517e-08
2.44068e-06
6.17888e-08
2.42251e-06
9.0316e-08
1.41292e-07
2.38831e-06
2.57573e-06
-2.54722e-07
2.58563e-06
1.74531e-07
2.57565e-06
-1.91428e-07
2.58422e-06
1.23813e-07
2.57551e-06
-1.46315e-07
2.58389e-06
7.82323e-08
2.57618e-06
-1.05905e-07
2.58353e-06
4.76006e-08
2.5767e-06
-7.32661e-08
2.58285e-06
2.43765e-08
2.5772e-06
-4.90962e-08
2.58197e-06
7.779e-09
2.57779e-06
-3.19316e-08
2.58088e-06
-2.48336e-09
2.57841e-06
-2.06003e-08
2.57965e-06
-7.08593e-09
2.57878e-06
-1.36462e-08
2.57851e-06
-7.22577e-09
2.57847e-06
-9.07903e-09
2.57765e-06
-4.55891e-09
2.57694e-06
-4.2504e-09
2.57714e-06
-4.18978e-10
2.57418e-06
2.80191e-09
2.57528e-06
7.37053e-09
2.56983e-06
1.53657e-08
2.56909e-06
2.45115e-08
2.5612e-06
3.84051e-08
2.57821e-06
4.47833e-08
2.614e-06
5.45271e-08
5.44632e-08
2.70082e-06
2.69876e-06
-2.45654e-07
2.70955e-06
1.63738e-07
2.69871e-06
-1.8058e-07
2.70795e-06
1.14571e-07
2.69857e-06
-1.36939e-07
2.70748e-06
6.9325e-08
2.69938e-06
-9.78018e-08
2.70699e-06
3.99849e-08
2.70005e-06
-6.63248e-08
2.70614e-06
1.82843e-08
2.70072e-06
-4.36719e-08
2.70509e-06
3.40879e-09
2.70146e-06
-2.83044e-08
2.70387e-06
-4.8889e-09
2.70214e-06
-1.88712e-08
2.70263e-06
-7.58179e-09
2.70246e-06
-1.34691e-08
2.70153e-06
-6.29718e-09
2.70209e-06
-9.6372e-09
2.70049e-06
-2.96505e-09
2.70101e-06
-4.76913e-09
2.6991e-06
1.49232e-09
2.69882e-06
3.08416e-09
2.69653e-06
9.65857e-09
2.69461e-06
1.72838e-08
2.69171e-06
2.74166e-08
2.68819e-06
4.19181e-08
2.67913e-06
5.38448e-08
2.65798e-06
7.56787e-08
8.93051e-08
2.62314e-06
2.82769e-06
-2.36074e-07
2.83938e-06
1.52044e-07
2.82767e-06
-1.68865e-07
2.83757e-06
1.04671e-07
2.82756e-06
-1.26933e-07
2.83694e-06
5.99488e-08
2.82852e-06
-8.93813e-08
2.8363e-06
3.22014e-08
2.82937e-06
-5.93993e-08
2.83528e-06
1.23802e-08
2.83017e-06
-3.85628e-08
2.8341e-06
-5.18571e-10
2.83104e-06
-2.5248e-08
2.83278e-06
-6.62989e-09
2.83173e-06
-1.78245e-08
2.83159e-06
-7.44176e-09
2.83194e-06
-1.38131e-08
2.83055e-06
-4.90803e-09
2.83161e-06
-1.0693e-08
2.82912e-06
-4.82254e-10
2.83104e-06
-6.68562e-09
2.82669e-06
5.84233e-09
2.8299e-06
-1.30119e-10
2.82339e-06
1.61742e-08
2.82693e-06
1.37414e-08
2.81925e-06
3.50978e-08
2.82033e-06
4.08335e-08
2.79974e-06
7.44411e-08
2.7903e-06
8.51188e-08
1.14055e-07
2.76555e-06
2.96281e-06
-2.25992e-07
2.97539e-06
1.3947e-07
2.96285e-06
-1.56323e-07
2.97334e-06
9.41764e-08
2.96278e-06
-1.16376e-07
2.97251e-06
5.02218e-08
2.96392e-06
-8.07899e-08
2.97169e-06
2.44332e-08
2.96501e-06
-5.27169e-08
2.97043e-06
6.9599e-09
2.96609e-06
-3.42221e-08
2.96899e-06
-3.41865e-09
2.96704e-06
-2.33045e-08
2.96775e-06
-7.33724e-09
2.96755e-06
-1.76248e-08
2.96684e-06
-6.72902e-09
2.96739e-06
-1.43708e-08
2.96615e-06
-3.66018e-09
2.96675e-06
-1.12918e-08
2.96513e-06
1.12819e-09
2.96533e-06
-6.88126e-09
2.9634e-06
7.77582e-09
2.9632e-06
6.41279e-11
2.95999e-06
1.93895e-08
2.95834e-06
1.53916e-08
2.95581e-06
3.76291e-08
2.95309e-06
4.35452e-08
2.94208e-06
8.54582e-08
2.91661e-06
1.10587e-07
1.51976e-07
2.87869e-06
3.10445e-06
-2.15433e-07
3.11786e-06
1.26053e-07
3.10456e-06
-1.4302e-07
3.11557e-06
8.31678e-08
3.10456e-06
-1.05366e-07
3.11452e-06
4.02646e-08
3.10588e-06
-7.2158e-08
3.11351e-06
1.681e-08
3.10717e-06
-4.63805e-08
3.11211e-06
2.02251e-09
3.10827e-06
-3.03874e-08
3.11076e-06
-5.89952e-09
3.10902e-06
-2.15665e-08
3.10995e-06
-8.26522e-09
3.10883e-06
-1.65101e-08
3.10988e-06
-7.77394e-09
3.10766e-06
-1.21571e-08
3.11025e-06
-6.24563e-09
3.10557e-06
-6.61653e-09
3.11064e-06
-3.94331e-09
3.10269e-06
1.07318e-09
3.11039e-06
7.80793e-11
3.09974e-06
1.07116e-08
3.10775e-06
1.13753e-08
3.09549e-06
2.76524e-08
3.09891e-06
3.42164e-08
3.08834e-06
5.41059e-08
3.12118e-06
5.2627e-08
3.16726e-06
6.44974e-08
5.98639e-08
3.25938e-06
3.25291e-06
-2.04433e-07
3.26711e-06
1.11854e-07
3.25315e-06
-1.29065e-07
3.26455e-06
7.1767e-08
3.25323e-06
-9.4044e-08
3.26324e-06
3.02572e-08
3.25477e-06
-6.36918e-08
3.26201e-06
9.57522e-09
3.25633e-06
-4.06989e-08
3.26036e-06
-2.00822e-09
3.25765e-06
-2.76784e-08
3.25887e-06
-7.12122e-09
3.25849e-06
-2.11864e-08
3.25791e-06
-7.68661e-09
3.2586e-06
-1.72011e-08
3.25724e-06
-6.40974e-09
3.25843e-06
-1.33529e-08
3.25615e-06
-3.96287e-09
3.25824e-06
-8.70326e-09
3.25432e-06
-2.71824e-11
3.25762e-06
-2.22411e-09
3.25155e-06
6.15091e-09
3.25529e-06
6.96548e-09
3.24811e-06
1.8556e-08
3.25202e-06
2.37459e-08
3.2458e-06
4.04304e-08
3.24729e-06
5.26223e-08
3.22657e-06
7.33427e-08
3.20302e-06
8.80547e-08
1.017e-07
3.16118e-06
3.40852e-06
-1.93024e-07
3.42343e-06
9.6951e-08
3.40895e-06
-1.14591e-07
3.4206e-06
6.01204e-08
3.40913e-06
-8.25716e-08
3.41897e-06
2.04085e-08
3.41091e-06
-5.56248e-08
3.41748e-06
2.9979e-09
3.41279e-06
-3.60077e-08
3.41553e-06
-4.7429e-09
3.41434e-06
-2.64889e-08
3.41396e-06
-6.73919e-09
3.41512e-06
-2.2353e-08
3.41303e-06
-5.59149e-09
3.41526e-06
-1.94367e-08
3.41219e-06
-3.34019e-09
3.41534e-06
-1.64976e-08
3.4109e-06
4.71959e-10
3.41492e-06
-1.27172e-08
3.4092e-06
5.69587e-09
3.41424e-06
-7.26612e-09
3.4062e-06
1.41927e-08
3.41212e-06
1.04071e-09
3.40293e-06
2.77478e-08
3.40795e-06
1.87286e-08
3.40168e-06
4.66951e-08
3.40648e-06
4.7828e-08
3.38209e-06
9.77236e-08
3.35508e-06
1.15067e-07
1.46188e-07
3.31059e-06
3.57166e-06
-1.81271e-07
3.58714e-06
8.14723e-08
3.57233e-06
-9.97868e-08
3.58404e-06
4.84085e-08
3.57258e-06
-7.11033e-08
3.58213e-06
1.08539e-08
3.57446e-06
-4.79502e-08
3.58064e-06
-3.19142e-09
3.57619e-06
-3.15526e-08
3.57913e-06
-7.68105e-09
3.57699e-06
-2.43548e-08
3.5786e-06
-8.3414e-09
3.57656e-06
-2.0317e-08
3.57902e-06
-8.04902e-09
3.57511e-06
-1.55278e-08
3.57994e-06
-8.16847e-09
3.57281e-06
-9.37479e-09
3.58141e-06
-8.11986e-09
3.56976e-06
-1.06787e-09
3.58196e-06
-6.50347e-09
3.56655e-06
8.13935e-09
3.5821e-06
-1.35497e-09
3.56345e-06
1.96871e-08
3.57976e-06
1.14386e-08
3.55948e-06
3.9008e-08
3.56969e-06
3.64873e-08
3.55557e-06
6.19515e-08
3.60404e-06
4.925e-08
3.65612e-06
6.29845e-08
5.83007e-08
3.74401e-06
3.74269e-06
-1.69256e-07
3.75858e-06
6.55833e-08
3.74371e-06
-8.49183e-08
3.75523e-06
3.68858e-08
3.74402e-06
-5.98889e-08
3.75294e-06
1.93292e-09
3.74607e-06
-4.10828e-08
3.75129e-06
-8.40932e-09
3.74798e-06
-2.82433e-08
3.74961e-06
-9.30758e-09
3.74919e-06
-2.39351e-08
3.74837e-06
-7.52728e-09
3.74995e-06
-2.18962e-08
3.74692e-06
-5.01733e-09
3.75084e-06
-1.94418e-08
3.74522e-06
-2.54768e-09
3.75137e-06
-1.5532e-08
3.74336e-06
-1.08439e-10
3.75161e-06
-9.3179e-09
3.74172e-06
3.38593e-09
3.74976e-06
1.00189e-10
3.73912e-06
9.29014e-09
3.74663e-06
1.21705e-08
3.73699e-06
2.10814e-08
3.74478e-06
3.12208e-08
3.73795e-06
4.33129e-08
3.73767e-06
6.22342e-08
3.71439e-06
7.25315e-08
3.68397e-06
9.34009e-08
1.0752e-07
3.63475e-06
3.92198e-06
-1.5705e-07
3.93808e-06
4.94833e-08
3.9235e-06
-7.03322e-08
3.9345e-06
2.58835e-08
3.92388e-06
-4.92675e-08
3.93173e-06
-5.9211e-09
3.92596e-06
-3.53115e-08
3.93014e-06
-1.25907e-08
3.92773e-06
-2.58273e-08
3.9287e-06
-1.02831e-08
3.92881e-06
-2.40487e-08
3.92736e-06
-6.07678e-09
3.93014e-06
-2.46707e-08
3.92521e-06
-8.7309e-11
3.9315e-06
-2.5729e-08
3.92282e-06
6.12972e-09
3.93309e-06
-2.58081e-08
3.91978e-06
1.32083e-08
3.93436e-06
-2.39054e-08
3.91631e-06
2.1442e-08
3.93484e-06
-1.84338e-08
3.913e-06
3.11309e-08
3.93355e-06
-8.37355e-09
3.91132e-06
4.33117e-08
3.93373e-06
8.80429e-09
3.91536e-06
6.16843e-08
3.93624e-06
4.13529e-08
3.89049e-06
1.18281e-07
3.85793e-06
1.25968e-07
1.55295e-07
3.81015e-06
4.10995e-06
-1.44754e-07
4.12604e-06
3.33953e-08
4.11206e-06
-5.63521e-08
4.12237e-06
1.55787e-08
4.11219e-06
-3.90917e-08
4.11954e-06
-1.32712e-08
4.11369e-06
-2.94559e-08
4.11897e-06
-1.788e-08
4.11388e-06
-2.07317e-08
4.11962e-06
-1.60267e-08
4.11258e-06
-1.70079e-08
4.12093e-06
-1.44232e-08
4.11045e-06
-1.41929e-08
4.12257e-06
-1.22036e-08
4.10827e-06
-1.14333e-08
4.1236e-06
-9.19872e-09
4.10625e-06
-8.46345e-09
4.12406e-06
-4.59449e-09
4.10444e-06
-4.29234e-09
4.12348e-06
2.40412e-09
4.10288e-06
2.17293e-09
4.121e-06
1.30086e-08
4.10068e-06
1.19466e-08
4.11663e-06
2.73612e-08
4.09797e-06
2.74638e-08
4.1161e-06
4.35518e-08
4.10756e-06
4.98972e-08
4.15825e-06
6.75867e-08
4.21032e-06
7.38971e-08
8.52121e-08
4.28041e-06
4.30708e-06
-1.32529e-07
4.32278e-06
1.76945e-08
4.31031e-06
-4.38834e-08
4.31897e-06
6.91409e-09
4.31019e-06
-3.03058e-08
4.31557e-06
-1.86537e-08
4.31143e-06
-2.5316e-08
4.31511e-06
-2.15645e-08
4.31149e-06
-1.71049e-08
4.31597e-06
-2.05103e-08
4.31027e-06
-1.13022e-08
4.3172e-06
-2.13526e-08
4.30834e-06
-5.33479e-09
4.31883e-06
-2.26972e-08
4.30584e-06
1.55787e-09
4.32012e-06
-2.34831e-08
4.30359e-06
8.06571e-09
4.32087e-06
-2.18731e-08
4.30138e-06
1.51996e-08
4.3206e-06
-1.6814e-08
4.29917e-06
2.36039e-08
4.31929e-06
-7.11165e-09
4.29671e-06
3.45229e-08
4.3149e-06
9.16988e-09
4.29297e-06
4.9397e-08
4.31215e-06
2.43713e-08
4.31044e-06
5.16093e-08
4.36137e-06
1.66585e-08
4.40968e-06
2.55888e-08
4.27743e-09
4.49061e-06
4.51382e-06
-1.20572e-07
4.5286e-06
2.90732e-09
4.51946e-06
-3.47406e-08
4.52495e-06
1.42787e-09
4.51796e-06
-2.3314e-08
4.52086e-06
-2.15594e-08
4.51886e-06
-2.33164e-08
4.5196e-06
-2.23037e-08
4.51986e-06
-1.73675e-08
4.51925e-06
-1.98991e-08
4.52108e-06
-1.31303e-08
4.51811e-06
-1.83835e-08
4.52195e-06
-9.17347e-09
4.51658e-06
-1.73247e-08
4.52264e-06
-4.50262e-09
4.51516e-06
-1.60026e-08
4.52269e-06
5.33641e-10
4.51385e-06
-1.30347e-08
4.52182e-06
7.23406e-09
4.51192e-06
-6.91376e-09
4.51896e-06
1.65652e-08
4.50812e-06
3.71903e-09
4.51287e-06
2.9776e-08
4.50428e-06
1.77627e-08
4.51203e-06
4.16491e-08
4.50484e-06
3.15558e-08
4.5085e-06
4.79475e-08
4.47997e-06
4.51889e-08
4.44233e-06
6.3236e-08
6.19291e-08
4.38467e-06
4.7304e-06
-1.08857e-07
4.74458e-06
-1.12734e-08
4.73647e-06
-2.66266e-08
4.74159e-06
-3.69131e-09
4.7351e-06
-1.6833e-08
4.73664e-06
-2.30947e-08
4.73563e-06
-2.2302e-08
4.73487e-06
-2.1548e-08
4.73774e-06
-2.0236e-08
4.73378e-06
-1.59444e-08
4.73962e-06
-1.89644e-08
4.73185e-06
-1.06201e-08
4.74112e-06
-1.84414e-08
4.72949e-06
-5.69412e-09
4.74265e-06
-1.76631e-08
4.72733e-06
-6.82296e-10
4.74322e-06
-1.53589e-08
4.72567e-06
4.52059e-09
4.74281e-06
-9.90961e-09
4.72421e-06
1.16891e-08
4.74125e-06
-4.74721e-10
4.72271e-06
2.22621e-08
4.73987e-06
1.26114e-08
4.72276e-06
3.48747e-08
4.73661e-06
2.78008e-08
4.71437e-06
5.37909e-08
4.71148e-06
5.08355e-08
4.68666e-06
7.00095e-08
4.68021e-06
6.96928e-08
9.43536e-08
4.64778e-06
4.95776e-06
-9.78144e-08
4.96943e-06
-2.29516e-08
4.96705e-06
-2.42468e-08
4.96597e-06
-2.61014e-09
4.96606e-06
-1.69197e-08
4.9612e-06
-1.82315e-08
4.96415e-06
-2.52569e-08
4.96049e-06
-1.78905e-08
4.96498e-06
-2.47252e-08
4.96059e-06
-1.15483e-08
4.96561e-06
-2.3989e-08
4.96016e-06
-5.16958e-09
4.96572e-06
-2.39977e-08
4.95946e-06
5.62645e-10
4.9651e-06
-2.33003e-08
4.95926e-06
5.15953e-09
4.96429e-06
-2.03931e-08
4.95784e-06
1.09706e-08
4.96143e-06
-1.34989e-08
4.95405e-06
1.90716e-08
4.95601e-06
-2.43959e-09
4.94935e-06
2.89191e-08
4.95074e-06
1.12304e-08
4.94706e-06
3.8554e-08
4.94747e-06
2.73917e-08
4.94927e-06
5.19826e-08
4.94714e-06
5.29682e-08
4.91865e-06
9.85004e-08
4.87516e-06
1.13185e-07
1.30904e-07
4.83861e-06
5.19568e-06
-8.7178e-08
5.20697e-06
-3.4241e-08
5.2026e-06
-1.98746e-08
5.20673e-06
-6.73949e-09
5.19822e-06
-8.41711e-09
5.20485e-06
-2.48561e-08
5.19551e-06
-1.59193e-08
5.20629e-06
-2.86722e-08
5.19382e-06
-1.22536e-08
5.20846e-06
-2.61846e-08
5.19175e-06
-7.28437e-09
5.21014e-06
-2.35598e-08
5.18951e-06
-3.36153e-09
5.21153e-06
-2.14567e-08
5.18779e-06
4.35473e-10
5.21155e-06
-1.86033e-08
5.18711e-06
4.05105e-09
5.21072e-06
-1.26375e-08
5.18679e-06
1.04298e-08
5.20941e-06
-3.55093e-09
5.18676e-06
2.0207e-08
5.20563e-06
1.00574e-08
5.18231e-06
3.45493e-08
5.1929e-06
2.79624e-08
5.17272e-06
4.75706e-08
5.1844e-06
4.03008e-08
5.19026e-06
4.71079e-08
5.26244e-06
2.63238e-08
5.3494e-06
2.62195e-08
2.69844e-08
5.45332e-06
5.44556e-06
-7.75459e-08
5.45216e-06
-4.08397e-08
5.45592e-06
-2.36383e-08
5.45017e-06
-9.86989e-10
5.45554e-06
-1.37902e-08
5.44613e-06
-1.54433e-08
5.45256e-06
-2.23473e-08
5.44583e-06
-2.19442e-08
5.45209e-06
-1.8513e-08
5.44696e-06
-2.10571e-08
5.45185e-06
-1.2176e-08
5.44777e-06
-1.94783e-08
5.45089e-06
-6.48132e-09
5.4465e-06
-1.707e-08
5.44855e-06
-1.61218e-09
5.44418e-06
-1.42377e-08
5.44463e-06
3.60673e-09
5.44148e-06
-9.49077e-09
5.44262e-06
9.29505e-09
5.43876e-06
3.07785e-10
5.43929e-06
1.96773e-08
5.4352e-06
1.4141e-08
5.43554e-06
3.42096e-08
5.43356e-06
2.99475e-08
5.43478e-06
4.63483e-08
5.43405e-06
4.10316e-08
5.42344e-06
5.77207e-08
5.39715e-06
5.26087e-08
5.35865e-06
6.47266e-08
6.48918e-08
5.32074e-06
5.70692e-06
-6.85052e-08
5.71277e-06
-4.66945e-08
5.71488e-06
-2.57435e-08
5.71525e-06
-1.36259e-09
5.71498e-06
-1.35125e-08
5.71091e-06
-1.13814e-08
5.71111e-06
-2.25454e-08
5.70723e-06
-1.80646e-08
5.71129e-06
-2.25752e-08
5.70769e-06
-1.7454e-08
5.71322e-06
-1.77088e-08
5.70737e-06
-1.36256e-08
5.71358e-06
-1.26929e-08
5.70635e-06
-9.83633e-09
5.71356e-06
-8.82748e-09
5.70469e-06
-5.35852e-09
5.71217e-06
-3.87998e-09
5.70196e-06
7.20811e-10
5.70698e-06
4.27647e-09
5.69772e-06
9.56765e-09
5.70242e-06
1.49779e-08
5.6955e-06
2.10586e-08
5.70059e-06
2.9122e-08
5.69352e-06
3.70202e-08
5.6938e-06
4.6063e-08
5.68133e-06
5.3501e-08
5.67644e-06
6.26143e-08
5.6593e-06
6.97459e-08
5.64437e-06
7.96575e-08
8.77975e-08
5.62146e-06
5.98104e-06
-6.03494e-08
5.98131e-06
-4.69702e-08
5.9888e-06
-3.32297e-08
5.9877e-06
-2.62934e-10
5.99013e-06
-1.594e-08
5.98175e-06
-3.00344e-09
5.98749e-06
-2.82906e-08
5.97902e-06
-9.58793e-09
5.98812e-06
-3.16787e-08
5.97932e-06
-8.65223e-09
5.98846e-06
-2.68534e-08
5.97968e-06
-4.84046e-09
5.98725e-06
-2.0264e-08
5.97874e-06
-1.33157e-09
5.98287e-06
-1.29563e-08
5.97562e-06
1.89061e-09
5.97866e-06
-6.91247e-09
5.97298e-06
6.39447e-09
5.97574e-06
1.52081e-09
5.9706e-06
1.4702e-08
5.97346e-06
1.21212e-08
5.96882e-06
2.5704e-08
5.97237e-06
2.55671e-08
5.96732e-06
4.20715e-08
5.96682e-06
4.65626e-08
5.95492e-06
6.53972e-08
5.94878e-06
6.87606e-08
5.93187e-06
8.66499e-08
5.9192e-06
9.23348e-08
1.02786e-07
5.90421e-06
6.26824e-06
-5.31046e-08
6.26552e-06
-4.42446e-08
6.27628e-06
-4.39894e-08
6.27039e-06
5.6213e-09
6.27873e-06
-2.42777e-08
6.26605e-06
9.67802e-09
6.27584e-06
-3.80777e-08
6.26441e-06
1.84135e-09
6.27608e-06
-4.33512e-08
6.26481e-06
2.61451e-09
6.27604e-06
-3.8076e-08
6.265e-06
6.19124e-09
6.27516e-06
-3.04206e-08
6.26456e-06
9.27233e-09
6.27355e-06
-2.1945e-08
6.26209e-06
1.33451e-08
6.26812e-06
-1.29424e-08
6.25805e-06
1.64678e-08
6.26341e-06
-3.83722e-09
6.25626e-06
2.18462e-08
6.25959e-06
8.79248e-09
6.25313e-06
3.21612e-08
6.25515e-06
2.35498e-08
6.25282e-06
4.43981e-08
6.26046e-06
3.89273e-08
6.25637e-06
6.94838e-08
6.24743e-06
7.77057e-08
6.21272e-06
1.21358e-07
6.16406e-06
1.4099e-07
1.29491e-07
6.13736e-06
6.56774e-06
-4.53756e-08
6.57733e-06
-5.38384e-08
6.56167e-06
-2.83257e-08
6.5807e-06
-1.34068e-08
6.56145e-06
-5.02626e-09
6.58178e-06
-1.06544e-08
6.55989e-06
-1.61913e-08
6.5816e-06
-1.98702e-08
6.5598e-06
-2.15506e-08
6.5817e-06
-1.92816e-08
6.55985e-06
-1.62271e-08
6.58111e-06
-1.50711e-08
6.5601e-06
-9.41116e-09
6.57985e-06
-1.04715e-08
6.56025e-06
-2.34899e-09
6.5782e-06
-4.60596e-09
6.56058e-06
4.67734e-09
6.5742e-06
2.85586e-09
6.55767e-06
1.26914e-08
6.56631e-06
1.31983e-08
6.55419e-06
2.09149e-08
6.5611e-06
2.525e-08
6.5479e-06
3.67494e-08
6.55017e-06
4.21275e-08
6.54169e-06
4.74167e-08
6.5693e-06
4.18718e-08
6.60365e-06
4.33549e-08
6.68518e-06
3.98224e-08
6.7853e-06
4.08769e-08
5.86883e-08
6.8561e-06
6.8845e-06
-4.00882e-08
6.87816e-06
-4.7494e-08
6.89028e-06
-4.04426e-08
6.88327e-06
-6.40236e-09
6.8938e-06
-1.55549e-08
6.88365e-06
-5.06568e-10
6.88973e-06
-2.22725e-08
6.88178e-06
-1.19204e-08
6.8866e-06
-2.63708e-08
6.88032e-06
-1.29966e-08
6.88539e-06
-2.13026e-08
6.87877e-06
-8.44798e-09
6.88342e-06
-1.40612e-08
6.87567e-06
-2.71576e-09
6.88032e-06
-7.00555e-09
6.87285e-06
2.86858e-09
6.87723e-06
2.92127e-10
6.87068e-06
9.40426e-09
6.87401e-06
9.36117e-09
6.86915e-06
1.80601e-08
6.87175e-06
1.83192e-08
6.87242e-06
2.4581e-08
6.88629e-06
2.28738e-08
6.89916e-06
2.92595e-08
6.91017e-06
3.64122e-08
6.89666e-06
5.53799e-08
6.86926e-06
7.0755e-08
6.81663e-06
9.24524e-08
6.75045e-06
1.0705e-07
8.19129e-08
6.72723e-06
7.21244e-06
-3.33928e-08
7.22457e-06
-5.96261e-08
7.20229e-06
-1.81612e-08
7.22643e-06
-3.05395e-08
7.20288e-06
7.99202e-09
7.2282e-06
-2.58238e-08
7.20237e-06
3.56025e-09
7.22734e-06
-3.68988e-08
7.20361e-06
-2.63671e-09
7.22566e-06
-3.50467e-08
7.20495e-06
-5.92529e-10
7.22401e-06
-2.75037e-08
7.20636e-06
3.58648e-09
7.22149e-06
-1.78428e-08
7.20558e-06
8.90468e-09
7.21639e-06
-7.94749e-09
7.20129e-06
1.53945e-08
7.20883e-06
1.8612e-09
7.19775e-06
2.04466e-08
7.20479e-06
1.1013e-08
7.19684e-06
2.62745e-08
7.20177e-06
1.96525e-08
7.18957e-06
3.50734e-08
7.18999e-06
2.88326e-08
7.1902e-06
3.62057e-08
7.22172e-06
2.38602e-08
7.26879e-06
2.36844e-08
7.3524e-06
8.84842e-09
7.45589e-06