/*--------------------------------*- C++ -*----------------------------------*\
| =========                 |                                                 |
| \\      /  F ield         | OpenFOAM: The Open Source CFD Toolbox           |
|  \\    /   O peration     | Version:  v2006                                 |
|   \\  /    A nd           | Website:  www.openfoam.com                      |
|    \\/     M anipulation  |                                                 |
\*---------------------------------------------------------------------------*/
FoamFile
{
    version     2.0;
    format      ascii;
    class       volVectorField;
    location    "2.5";
    object      U;
}
// * * * * * * * * * * * * * * * * * * * * * * * * * * * * * * * * * * * * * //

dimensions      [0 1 -1 0 0 0 0];


internalField   nonuniform List<vector> 
26400
(
(0.909056 -0.00477441 0)
(1.09185 0.00444254 0)
(0.913093 -0.00428221 0)
(1.09152 0.00386803 0)
(0.919444 -0.00385159 0)
(1.09213 0.00333684 0)
(0.925092 -0.00346922 0)
(1.09266 0.00285782 0)
(0.930049 -0.0031301 0)
(1.09315 0.00243811 0)
(0.934343 -0.00282841 0)
(1.09361 0.00206803 0)
(0.937951 -0.00256002 0)
(1.0941 0.00173554 0)
(0.940834 -0.00232046 0)
(1.0947 0.00143548 0)
(0.942924 -0.00210357 0)
(1.09548 0.00116614 0)
(0.944111 -0.00190172 0)
(1.09655 0.000924716 0)
(0.94423 -0.00170428 0)
(1.098 0.000706446 0)
(0.943046 -0.00149103 0)
(1.09992 0.000503452 0)
(0.940225 -0.0012106 0)
(1.10228 0.000293042 0)
(0.935256 -0.000671775 0)
(1.10458 2.55142e-05 0)
(0.926801 0.00111078 0)
(1.10573 0.000366807 0)
(0.915947 -0.00481494 0)
(1.08603 0.00444459 0)
(0.922497 -0.00434755 0)
(1.08565 0.00386655 0)
(0.930497 -0.00392842 0)
(1.0856 0.00333536 0)
(0.937504 -0.00354952 0)
(1.08508 0.0028597 0)
(0.943799 -0.00321153 0)
(1.08418 0.00244366 0)
(0.949575 -0.00291022 0)
(1.08287 0.00207753 0)
(0.954949 -0.00264164 0)
(1.08114 0.00174956 0)
(0.960046 -0.0024008 0)
(1.07891 0.00145511 0)
(0.965007 -0.0021811 0)
(1.07605 0.00119366 0)
(0.970016 -0.00197465 0)
(1.07233 0.000964623 0)
(0.97531 -0.00176981 0)
(1.06741 0.000766826 0)
(0.981179 -0.00154064 0)
(1.0608 0.00059198 0)
(0.987936 -0.00121686 0)
(1.05177 0.000395216 0)
(0.99577 -0.000547767 0)
(1.03908 0.000214815 0)
(1.00437 0.0020205 0)
(1.02009 0.00151516 0)
(0.928127 -0.00486137 0)
(1.07425 0.00442111 0)
(0.937575 -0.00440956 0)
(1.07358 0.00383988 0)
(0.947705 -0.00399295 0)
(1.07247 0.00330916 0)
(0.95646 -0.00360685 0)
(1.07042 0.00283387 0)
(0.964339 -0.00325828 0)
(1.06764 0.00241442 0)
(0.971646 -0.00294281 0)
(1.06421 0.00204061 0)
(0.978548 -0.00265486 0)
(1.06017 0.00169926 0)
(0.985161 -0.00238672 0)
(1.05555 0.0013833 0)
(0.991544 -0.00212792 0)
(1.05038 0.00108851 0)
(0.997691 -0.00186525 0)
(1.04471 0.000809345 0)
(1.0035 -0.00158093 0)
(1.03866 0.000541485 0)
(1.00875 -0.00124868 0)
(1.03239 0.000285243 0)
(1.01302 -0.000819428 0)
(1.02613 4.77629e-05 0)
(1.01565 -0.000131248 0)
(1.01991 5.80568e-05 0)
(1.01544 0.00216691 0)
(1.01418 0.00376218 0)
(0.943438 -0.00489446 0)
(1.05835 0.00434617 0)
(0.954381 -0.00444374 0)
(1.05721 0.00376361 0)
(0.965639 -0.0040146 0)
(1.05521 0.00323185 0)
(0.975148 -0.00360793 0)
(1.05209 0.00275223 0)
(0.983422 -0.00323676 0)
(1.04831 0.00232283 0)
(0.990747 -0.0028962 0)
(1.04411 0.00193439 0)
(0.997237 -0.00258018 0)
(1.0397 0.00157456 0)
(1.00293 -0.00228097 0)
(1.03528 0.00123763 0)
(1.00778 -0.00198906 0)
(1.03104 0.000922038 0)
(1.01172 -0.0016933 0)
(1.02713 0.000626475 0)
(1.01464 -0.00137864 0)
(1.02366 0.000353697 0)
(1.01643 -0.00102478 0)
(1.02065 0.000116407 0)
(1.01696 -0.000578459 0)
(1.01797 -4.58655e-05 0)
(1.01606 0.00015699 0)
(1.01519 0.00024039 0)
(1.01339 0.00254415 0)
(1.01233 0.00593951 0)
(0.959213 -0.0049063 0)
(1.0414 0.00423174 0)
(0.969563 -0.00444802 0)
(1.03993 0.00364848 0)
(0.980192 -0.00399975 0)
(1.03768 0.0031159 0)
(0.988835 -0.00356883 0)
(1.03457 0.00263383 0)
(0.995923 -0.00317473 0)
(1.03117 0.00219887 0)
(1.00172 -0.00281298 0)
(1.02779 0.0018039 0)
(1.00634 -0.00247777 0)
(1.02467 0.00143853 0)
(1.0099 -0.0021618 0)
(1.02194 0.00109882 0)
(1.01244 -0.00185602 0)
(1.01968 0.0007851 0)
(1.01406 -0.00154955 0)
(1.01785 0.000498148 0)
(1.01483 -0.00122748 0)
(1.01636 0.000245085 0)
(1.01483 -0.000872008 0)
(1.015 4.38495e-05 0)
(1.01407 -0.000461201 0)
(1.01351 -5.58712e-06 0)
(1.01247 2.75549e-05 0)
(1.01144 0.00109597 0)
(1.0099 0.00164989 0)
(1.00917 0.00843275 0)
(0.97307 -0.00489495 0)
(1.02634 0.0041041 0)
(0.981134 -0.00442781 0)
(1.0249 0.00352109 0)
(0.9897 -0.00396298 0)
(1.02309 0.00299022 0)
(0.996326 -0.00351247 0)
(1.0208 0.00251144 0)
(1.00139 -0.00310215 0)
(1.01856 0.00207869 0)
(1.00518 -0.0027276 0)
(1.01659 0.00168607 0)
(1.0079 -0.00238223 0)
(1.01499 0.00132388 0)
(1.00972 -0.00205771 0)
(1.01374 0.00098824 0)
(1.01081 -0.00174397 0)
(1.0128 0.00068007 0)
(1.01131 -0.00142986 0)
(1.01204 0.000402564 0)
(1.01131 -0.00110261 0)
(1.01131 0.000170068 0)
(1.01086 -0.000746275 0)
(1.01044 6.2433e-06 0)
(1.00993 -0.000362667 0)
(1.0092 4.28331e-05 0)
(1.00839 0.000223595 0)
(1.0073 0.00105956 0)
(1.00623 0.00260504 0)
(1.00551 0.00619727 0)
(0.983655 -0.00486297 0)
(1.01488 0.00398477 0)
(0.988742 -0.00439052 0)
(1.01377 0.00340308 0)
(0.994744 -0.00391552 0)
(1.0127 0.00287539 0)
(0.999138 -0.00345175 0)
(1.01141 0.00240271 0)
(1.00228 -0.00303077 0)
(1.01028 0.00197427 0)
(1.00448 -0.00264755 0)
(1.0094 0.00158413 0)
(1.00595 -0.00229364 0)
(1.00875 0.00122212 0)
(1.00685 -0.00195868 0)
(1.00829 0.000883364 0)
(1.00733 -0.00163069 0)
(1.00791 0.000568626 0)
(1.00746 -0.00129747 0)
(1.00753 0.000282861 0)
(1.00729 -0.000947085 0)
(1.00704 4.47086e-05 0)
(1.0068 -0.000550108 0)
(1.0063 -0.000121791 0)
(1.00589 -0.00010947 0)
(1.00516 -0.000107468 0)
(1.0044 0.000769402 0)
(1.00344 0.000589388 0)
(1.0024 0.00409082 0)
(1.00197 0.00466518 0)
(0.990798 -0.00481522 0)
(1.00728 0.00388319 0)
(0.993172 -0.00434174 0)
(1.00656 0.00330279 0)
(0.996939 -0.00386222 0)
(1.00614 0.00277663 0)
(0.999552 -0.00338938 0)
(1.00557 0.00230831 0)
(1.00133 -0.00296022 0)
(1.00512 0.0018815 0)
(1.00254 -0.00256963 0)
(1.0048 0.00149061 0)
(1.00333 -0.00220803 0)
(1.00458 0.0011262 0)
(1.00381 -0.0018645 0)
(1.00441 0.000784397 0)
(1.00404 -0.00152747 0)
(1.00423 0.000468734 0)
(1.00405 -0.00118729 0)
(1.00396 0.000189764 0)
(1.00383 -0.000838088 0)
(1.00355 -2.72721e-05 0)
(1.00331 -0.000468845 0)
(1.00286 -0.000119638 0)
(1.0024 -8.9299e-05 0)
(1.00177 0.000137744 0)
(1.00097 0.000288176 0)
(1.00019 0.00185839 0)
(0.999232 0.00259645 0)
(0.998997 0.0102066 0)
(0.995141 -0.00475609 0)
(1.00275 0.00379762 0)
(0.99555 -0.00428401 0)
(1.00235 0.00321726 0)
(0.997767 -0.00380321 0)
(1.00232 0.00268874 0)
(0.999218 -0.00332298 0)
(1.00213 0.00222086 0)
(1.00017 -0.00288573 0)
(1.00198 0.0017914 0)
(1.00082 -0.00248702 0)
(1.00187 0.00139565 0)
(1.00124 -0.00211664 0)
(1.00179 0.00102569 0)
(1.00149 -0.00176377 0)
(1.00171 0.000679409 0)
(1.00158 -0.00141809 0)
(1.00157 0.000364111 0)
(1.00151 -0.00107292 0)
(1.00134 9.55644e-05 0)
(1.00123 -0.000718445 0)
(1.00093 -0.000103674 0)
(1.00069 -0.000366069 0)
(1.00024 -0.000145321 0)
(0.99978 9.72047e-06 0)
(0.999117 0.00019382 0)
(0.998438 0.000404534 0)
(0.997601 0.00204122 0)
(0.997204 0.00232091 0)
(0.996677 0.0100178 0)
(0.997577 -0.00468825 0)
(1.00027 0.00372063 0)
(0.996789 -0.00421774 0)
(1.00005 0.00313881 0)
(0.998088 -0.00373705 0)
(1.00021 0.00260397 0)
(0.998873 -0.00324974 0)
(1.00017 0.00213303 0)
(0.999358 -0.0028034 0)
(1.00012 0.0016972 0)
(0.999682 -0.00239467 0)
(1.00008 0.00129242 0)
(0.999884 -0.00201238 0)
(1.00003 0.000911735 0)
(0.999982 -0.00164507 0)
(0.999956 0.000553991 0)
(0.999967 -0.00128284 0)
(0.999817 0.00022935 0)
(0.999816 -0.000920394 0)
(0.999568 -4.41411e-05 0)
(0.999487 -0.000544432 0)
(0.99914 -0.000243183 0)
(0.998912 -0.000154136 0)
(0.99843 -0.000296972 0)
(0.997988 0.000322496 0)
(0.9973 -0.000108016 0)
(0.996676 0.0013852 0)
(0.995842 0.000760382 0)
(0.995634 0.00391627 0)
(0.995283 0.00263692 0)
(0.998872 -0.00461296 0)
(0.998976 0.00364448 0)
(0.99744 -0.00414252 0)
(0.998841 0.0030605 0)
(0.99825 -0.00366257 0)
(0.999086 0.00251683 0)
(0.998679 -0.00316866 0)
(0.999106 0.00204188 0)
(0.998906 -0.00271377 0)
(0.999089 0.00160032 0)
(0.99904 -0.00229729 0)
(0.999055 0.00119004 0)
(0.999102 -0.00190889 0)
(0.999006 0.000807073 0)
(0.999094 -0.00153874 0)
(0.998922 0.000453929 0)
(0.998999 -0.00118039 0)
(0.99877 0.000146471 0)
(0.998787 -0.00083207 0)
(0.998503 -9.37264e-05 0)
(0.998411 -0.000493276 0)
(0.998054 -0.000226535 0)
(0.9978 -0.000153991 0)
(0.997327 -0.000192953 0)
(0.996853 0.000294354 0)
(0.996217 0.000136278 0)
(0.995522 0.00136929 0)
(0.994834 0.00101072 0)
(0.994314 0.00402872 0)
(0.994745 0.00165367 0)
(0.999539 -0.00453069 0)
(0.998318 0.00356344 0)
(0.997787 -0.00405744 0)
(0.998227 0.00297706 0)
(0.998351 -0.00357794 0)
(0.998508 0.00242205 0)
(0.998596 -0.00307643 0)
(0.998552 0.00194086 0)
(0.998683 -0.00261039 0)
(0.998545 0.00149019 0)
(0.99871 -0.00218196 0)
(0.998512 0.00106906 0)
(0.998689 -0.00178079 0)
(0.998456 0.00067565 0)
(0.998616 -0.00139773 0)
(0.99836 0.000315209 0)
(0.998472 -0.00102833 0)
(0.998192 7.01613e-06 0)
(0.998223 -0.000669391 0)
(0.997907 -0.000226623 0)
(0.997819 -0.000331993 0)
(0.997436 -0.00033088 0)
(0.997191 1.418e-06 0)
(0.996691 -0.000255842 0)
(0.99624 0.00043626 0)
(0.995584 0.000217834 0)
(0.994938 0.00128323 0)
(0.994286 0.0016519 0)
(0.993798 0.00395437 0)
(0.994714 0.00611451 0)
(0.999878 -0.00444173 0)
(0.997992 0.00347447 0)
(0.997974 -0.00396217 0)
(0.997924 0.0028866 0)
(0.998415 -0.00348363 0)
(0.998225 0.00231966 0)
(0.998567 -0.00297582 0)
(0.998282 0.00183381 0)
(0.998583 -0.00250092 0)
(0.998281 0.00137785 0)
(0.998552 -0.00206586 0)
(0.998248 0.000953437 0)
(0.998484 -0.00166207 0)
(0.998189 0.000563076 0)
(0.998374 -0.00128351 0)
(0.998087 0.000217066 0)
(0.998201 -0.000929761 0)
(0.997911 -6.14873e-05 0)
(0.997929 -0.000603837 0)
(0.997614 -0.000242045 0)
(0.997509 -0.000313328 0)
(0.997133 -0.000265626 0)
(0.99687 -3.20519e-05 0)
(0.996381 -5.27164e-05 0)
(0.995928 0.000271356 0)
(0.995283 0.000633614 0)
(0.994686 0.000998616 0)
(0.994103 0.00244426 0)
(0.993877 0.0036495 0)
(0.994721 0.0103021 0)
(1.00005 -0.00434592 0)
(0.997833 0.00337524 0)
(0.998079 -0.00385523 0)
(0.99778 0.00278637 0)
(0.99846 -0.00337711 0)
(0.998094 0.00220562 0)
(0.998567 -0.00286223 0)
(0.99816 0.00171378 0)
(0.998545 -0.00237657 0)
(0.998163 0.00125074 0)
(0.998484 -0.00193245 0)
(0.998132 0.000820496 0)
(0.998392 -0.00152268 0)
(0.998071 0.000429723 0)
(0.998264 -0.00114382 0)
(0.997966 9.29714e-05 0)
(0.998077 -0.000797419 0)
(0.997784 -0.000165946 0)
(0.997796 -0.000495921 0)
(0.99748 -0.000305954 0)
(0.997374 -0.000230577 0)
(0.99699 -0.000283015 0)
(0.996742 4.60217e-05 0)
(0.996227 -2.75256e-05 0)
(0.995825 0.00047013 0)
(0.99515 0.0006391 0)
(0.994655 0.00149767 0)
(0.994095 0.00237279 0)
(0.994402 0.00398999 0)
(0.995034 0.00644535 0)
(1.00015 -0.00424325 0)
(0.997752 0.00326471 0)
(0.998148 -0.00373615 0)
(0.997707 0.00267592 0)
(0.9985 -0.00325883 0)
(0.99803 0.0020808 0)
(0.998585 -0.00273823 0)
(0.998103 0.00158448 0)
(0.998544 -0.00224399 0)
(0.998111 0.00111779 0)
(0.998467 -0.00179521 0)
(0.998083 0.000687526 0)
(0.998361 -0.00138654 0)
(0.998025 0.000305457 0)
(0.998221 -0.00101766 0)
(0.997921 -9.47474e-06 0)
(0.998025 -0.000690914 0)
(0.99774 -0.000233729 0)
(0.997738 -0.000422182 0)
(0.997437 -0.000322586 0)
(0.997313 -0.00019023 0)
(0.996951 -0.000253344 0)
(0.996682 8.60214e-05 0)
(0.99621 -2.80466e-05 0)
(0.995778 0.000709799 0)
(0.995183 0.000578681 0)
(0.994676 0.00207144 0)
(0.994213 0.00227205 0)
(0.994224 0.00460662 0)
(0.995481 0.0028755 0)
(1.00021 -0.00413326 0)
(0.997706 0.00314145 0)
(0.998202 -0.00360347 0)
(0.997664 0.00255329 0)
(0.99854 -0.00312678 0)
(0.997991 0.00194233 0)
(0.998617 -0.00260076 0)
(0.998065 0.00144142 0)
(0.998568 -0.00209804 0)
(0.998075 0.000971808 0)
(0.998486 -0.00164576 0)
(0.998046 0.000543274 0)
(0.998376 -0.00124111 0)
(0.997987 0.000174487 0)
(0.998235 -0.000890725 0)
(0.997882 -0.000110807 0)
(0.998039 -0.000599962 0)
(0.997697 -0.000285705 0)
(0.997756 -0.000375558 0)
(0.99739 -0.000310092 0)
(0.997338 -0.000189728 0)
(0.996906 -0.000164973 0)
(0.996715 4.889e-05 0)
(0.996186 0.00020691 0)
(0.995839 0.000549671 0)
(0.995216 0.00103985 0)
(0.994822 0.0018175 0)
(0.994357 0.00307435 0)
(0.994407 0.00481868 0)
(0.996136 0.00718439 0)
(1.00025 -0.00401643 0)
(0.997683 0.00300591 0)
(0.998241 -0.00345798 0)
(0.997641 0.00242062 0)
(0.99857 -0.00298389 0)
(0.997972 0.00179539 0)
(0.998642 -0.00245645 0)
(0.998049 0.00129458 0)
(0.998588 -0.00195111 0)
(0.99806 0.000829988 0)
(0.998501 -0.00150441 0)
(0.998034 0.000414006 0)
(0.998388 -0.00111729 0)
(0.997977 7.52115e-05 0)
(0.998244 -0.000805372 0)
(0.997873 -0.000160986 0)
(0.998049 -0.000574796 0)
(0.997689 -0.000264594 0)
(0.997769 -0.000412431 0)
(0.997384 -0.000212028 0)
(0.997358 -0.000279629 0)
(0.996906 1.18857e-05 0)
(0.996753 -0.00010999 0)
(0.996199 0.000571037 0)
(0.995912 0.000301507 0)
(0.995287 0.00164032 0)
(0.994998 0.00145551 0)
(0.994613 0.00392072 0)
(0.994921 0.00490965 0)
(0.996346 0.0117306 0)
(1.00027 -0.0038909 0)
(0.997683 0.0028544 0)
(0.998264 -0.00329573 0)
(0.997642 0.00227238 0)
(0.998584 -0.00282389 0)
(0.997978 0.00163168 0)
(0.998652 -0.00229549 0)
(0.998058 0.00113151 0)
(0.998594 -0.00178806 0)
(0.998072 0.000673401 0)
(0.998504 -0.0013472 0)
(0.998047 0.000271253 0)
(0.99839 -0.000979024 0)
(0.997989 -3.69759e-05 0)
(0.998248 -0.000693111 0)
(0.997884 -0.000231908 0)
(0.998057 -0.00050248 0)
(0.997698 -0.000289798 0)
(0.997786 -0.000362121 0)
(0.997392 -0.000219217 0)
(0.997385 -0.000203924 0)
(0.996914 -1.94232e-05 0)
(0.996806 8.60951e-05 0)
(0.996227 0.000419842 0)
(0.996009 0.00074408 0)
(0.995372 0.00143482 0)
(0.995199 0.00224148 0)
(0.994914 0.00351772 0)
(0.995796 0.00497326 0)
(0.996763 0.00698046 0)
(1.00028 -0.003758 0)
(0.997698 0.00268925 0)
(0.998279 -0.00311997 0)
(0.997658 0.00211189 0)
(0.998591 -0.00265228 0)
(0.998 0.00145589 0)
(0.998657 -0.0021261 0)
(0.998085 0.000958927 0)
(0.998594 -0.00162109 0)
(0.998102 0.000512043 0)
(0.9985 -0.0011939 0)
(0.998081 0.000133752 0)
(0.998384 -0.000877429 0)
(0.998026 -0.000132689 0)
(0.998241 -0.000637859 0)
(0.997922 -0.000271676 0)
(0.998051 -0.000484876 0)
(0.997739 -0.000283565 0)
(0.997781 -0.000353616 0)
(0.99744 -0.000199923 0)
(0.997384 -0.000160126 0)
(0.996981 -4.09386e-05 0)
(0.996811 0.000255662 0)
(0.99633 0.000286113 0)
(0.996061 0.00113914 0)
(0.99556 0.00128302 0)
(0.99534 0.00296271 0)
(0.99512 0.00331065 0)
(0.995544 0.00513632 0)
(0.997291 0.00276625 0)
(1.00028 -0.00362263 0)
(0.997716 0.00251825 0)
(0.998296 -0.0029385 0)
(0.997671 0.00195534 0)
(0.998605 -0.00248379 0)
(0.998014 0.00129564 0)
(0.998676 -0.00197368 0)
(0.998099 0.000819262 0)
(0.998615 -0.00148909 0)
(0.998113 0.000405524 0)
(0.998523 -0.00109528 0)
(0.998086 7.78627e-05 0)
(0.998413 -0.000793674 0)
(0.998028 -0.000149101 0)
(0.998277 -0.000614813 0)
(0.997918 -0.000233959 0)
(0.998096 -0.000508988 0)
(0.997733 -0.000197559 0)
(0.997833 -0.000407225 0)
(0.997437 -6.28046e-05 0)
(0.997441 -0.000228507 0)
(0.996993 0.000168562 0)
(0.996885 0.000103621 0)
(0.996384 0.000653859 0)
(0.996194 0.000912811 0)
(0.995701 0.00182003 0)
(0.995577 0.00266703 0)
(0.995342 0.00426459 0)
(0.995722 0.00579406 0)
(0.998093 0.00770271 0)
(1.00026 -0.00346096 0)
(0.997758 0.00230255 0)
(0.998294 -0.00271081 0)
(0.997705 0.0017394 0)
(0.9986 -0.0022538 0)
(0.998049 0.00105557 0)
(0.998675 -0.00174196 0)
(0.998134 0.000578174 0)
(0.998615 -0.00125793 0)
(0.998147 0.000174954 0)
(0.998526 -0.000889585 0)
(0.99812 -0.000123932 0)
(0.998418 -0.000628829 0)
(0.998057 -0.000296388 0)
(0.998288 -0.000502057 0)
(0.997945 -0.000317582 0)
(0.998112 -0.000457854 0)
(0.997761 -0.000216778 0)
(0.997856 -0.00043266 0)
(0.997471 8.59138e-06 0)
(0.997475 -0.000356497 0)
(0.997035 0.000437988 0)
(0.996944 -0.000119397 0)
(0.996463 0.00122123 0)
(0.996312 0.000565619 0)
(0.99587 0.00256068 0)
(0.995843 0.00215007 0)
(0.995733 0.00531124 0)
(0.996292 0.00625476 0)
(0.997992 0.0129896 0)
(1.00022 -0.00333188 0)
(0.997836 0.00213583 0)
(0.998267 -0.00253504 0)
(0.997775 0.0016067 0)
(0.998567 -0.00211363 0)
(0.998122 0.000941438 0)
(0.998647 -0.0016505 0)
(0.998207 0.000518607 0)
(0.99859 -0.00122483 0)
(0.998216 0.000190217 0)
(0.998505 -0.00093965 0)
(0.998182 -3.23399e-05 0)
(0.998406 -0.000796634 0)
(0.998113 -0.000107446 0)
(0.998286 -0.000730983 0)
(0.997994 -8.24775e-05 0)
(0.998121 -0.000688379 0)
(0.997805 -1.36629e-06 0)
(0.997878 -0.000600759 0)
(0.997511 0.000135657 0)
(0.997521 -0.000389664 0)
(0.997086 0.000432934 0)
(0.997031 9.8972e-05 0)
(0.996548 0.00106062 0)
(0.996452 0.001049 0)
(0.996034 0.0023763 0)
(0.996133 0.00300753 0)
(0.996212 0.00476787 0)
(0.997373 0.00578166 0)
(0.99828 0.00707961 0)
(1.00017 -0.00313327 0)
(0.99793 0.00185833 0)
(0.998237 -0.00224683 0)
(0.99786 0.00132985 0)
(0.998533 -0.00181832 0)
(0.998211 0.000638822 0)
(0.99862 -0.00135324 0)
(0.998297 0.000217208 0)
(0.998565 -0.000916416 0)
(0.998304 -9.61245e-05 0)
(0.998483 -0.000608646 0)
(0.998267 -0.000324873 0)
(0.998387 -0.000420561 0)
(0.998196 -0.000444433 0)
(0.998269 -0.000277087 0)
(0.99808 -0.00051787 0)
(0.998103 -0.000102238 0)
(0.997899 -0.000564684 0)
(0.997859 0.000168278 0)
(0.997623 -0.000577854 0)
(0.997506 0.000557793 0)
(0.997228 -0.000476173 0)
(0.997036 0.001207 0)
(0.996737 -4.7339e-05 0)
(0.996544 0.00233304 0)
(0.996347 0.00124653 0)
(0.99632 0.00447725 0)
(0.996404 0.0035505 0)
(0.996782 0.00650138 0)
(0.998788 0.00252902 0)
(1.00014 -0.00300067 0)
(0.998007 0.00167894 0)
(0.998233 -0.0020631 0)
(0.997921 0.00119564 0)
(0.998529 -0.00168198 0)
(0.998269 0.000534157 0)
(0.998631 -0.00128982 0)
(0.998352 0.000179733 0)
(0.998585 -0.000955967 0)
(0.99835 -2.00301e-05 0)
(0.99851 -0.000794593 0)
(0.998304 -9.86622e-05 0)
(0.998424 -0.000768988 0)
(0.998228 -6.79493e-05 0)
(0.998312 -0.000793521 0)
(0.998111 3.71805e-05 0)
(0.998152 -0.000826184 0)
(0.997933 0.000228976 0)
(0.997915 -0.000828809 0)
(0.99766 0.000601614 0)
(0.997576 -0.000750808 0)
(0.997283 0.00114013 0)
(0.99714 -0.000455465 0)
(0.996844 0.00206792 0)
(0.996728 0.000395702 0)
(0.996557 0.00353441 0)
(0.996643 0.0020079 0)
(0.996761 0.00622705 0)
(0.997184 0.0060855 0)
(0.999009 0.0136016 0)
(1.00009 -0.00279788 0)
(0.998107 0.00139967 0)
(0.998215 -0.00177594 0)
(0.998006 0.000941824 0)
(0.998505 -0.00141251 0)
(0.998356 0.000287065 0)
(0.998618 -0.00106156 0)
(0.998437 -3.47812e-05 0)
(0.998579 -0.000773998 0)
(0.998426 -0.000183422 0)
(0.998513 -0.000662874 0)
(0.998372 -0.000224036 0)
(0.998435 -0.000632527 0)
(0.998289 -0.000217884 0)
(0.998333 -0.000600957 0)
(0.998165 -0.000209859 0)
(0.998186 -0.000526539 0)
(0.99798 -0.000171478 0)
(0.997977 -0.000392139 0)
(0.997708 -4.52334e-06 0)
(0.997664 -5.46638e-05 0)
(0.997343 0.000427264 0)
(0.997281 0.000510451 0)
(0.996952 0.00121147 0)
(0.996919 0.00157613 0)
(0.996731 0.00266748 0)
(0.997002 0.00344907 0)
(0.997401 0.00482178 0)
(0.998663 0.00580608 0)
(0.999223 0.00720396 0)
(1.00006 -0.00264766 0)
(0.998203 0.00118153 0)
(0.998216 -0.00156055 0)
(0.998088 0.000774367 0)
(0.998497 -0.00123752 0)
(0.998443 0.000152373 0)
(0.998617 -0.000922324 0)
(0.998526 -0.000121579 0)
(0.998582 -0.000669064 0)
(0.998513 -0.000231624 0)
(0.998517 -0.000556152 0)
(0.99846 -0.000287493 0)
(0.998435 -0.000466069 0)
(0.998383 -0.000344735 0)
(0.998324 -0.000289147 0)
(0.99827 -0.000448166 0)
(0.99817 -2.55725e-05 0)
(0.998099 -0.000573454 0)
(0.997954 0.000377299 0)
(0.997857 -0.000703241 0)
(0.997664 0.000953596 0)
(0.997522 -0.000649278 0)
(0.997305 0.00179902 0)
(0.997186 -0.000200984 0)
(0.997056 0.00310497 0)
(0.997089 0.00122556 0)
(0.997169 0.00536892 0)
(0.997428 0.00335732 0)
(0.997795 0.00648371 0)
(0.999746 0.000924274 0)
(1.0001 -0.00241241 0)
(0.998237 0.000862925 0)
(0.998287 -0.00125523 0)
(0.998096 0.000498639 0)
(0.998562 -0.000975656 0)
(0.99845 -9.51114e-05 0)
(0.998697 -0.000750296 0)
(0.99853 -0.000276916 0)
(0.99867 -0.000601859 0)
(0.998509 -0.000260486 0)
(0.998609 -0.000639494 0)
(0.998455 -0.000168128 0)
(0.99853 -0.000759863 0)
(0.998384 -1.5808e-05 0)
(0.998419 -0.000921255 0)
(0.998276 0.000243505 0)
(0.998265 -0.00105006 0)
(0.99812 0.00057579 0)
(0.998049 -0.00108781 0)
(0.997891 0.000984207 0)
(0.997757 -0.000961177 0)
(0.997594 0.00150564 0)
(0.997441 -0.000469407 0)
(0.997326 0.00233394 0)
(0.99729 0.000520727 0)
(0.997361 0.00374119 0)
(0.997568 0.00249627 0)
(0.997808 0.00689292 0)
(0.998097 0.00734682 0)
(0.999874 0.0135415 0)
(1.00009 -0.00231456 0)
(0.998313 0.000728713 0)
(0.998323 -0.00112549 0)
(0.998143 0.000447316 0)
(0.998588 -0.000915511 0)
(0.998495 -0.000114099 0)
(0.99874 -0.000796189 0)
(0.998572 -0.000233325 0)
(0.998725 -0.000691473 0)
(0.99854 -0.000184003 0)
(0.99867 -0.000725283 0)
(0.998475 -9.87008e-05 0)
(0.9986 -0.000815744 0)
(0.998388 3.82788e-05 0)
(0.998508 -0.000946517 0)
(0.998274 0.000294408 0)
(0.998372 -0.00106621 0)
(0.998112 0.000641215 0)
(0.998178 -0.00113256 0)
(0.997895 0.00111957 0)
(0.99792 -0.00101461 0)
(0.997631 0.00179549 0)
(0.997634 -0.000571713 0)
(0.997413 0.00273361 0)
(0.99753 0.000330363 0)
(0.99758 0.00397481 0)
(0.998118 0.0019235 0)
(0.99876 0.00660456 0)
(0.999782 0.0066892 0)
(0.999302 0.0134927 0)
(1.00004 -0.00203789 0)
(0.998454 0.000344313 0)
(0.998316 -0.00072811 0)
(0.998252 0.000110333 0)
(0.998567 -0.000488858 0)
(0.998603 -0.000447576 0)
(0.998736 -0.000381713 0)
(0.998682 -0.000607824 0)
(0.998726 -0.000217406 0)
(0.998647 -0.000676758 0)
(0.998671 -9.10449e-05 0)
(0.998582 -0.00078943 0)
(0.998603 6.54181e-05 0)
(0.998501 -0.000917372 0)
(0.998515 0.000294141 0)
(0.998387 -0.00105089 0)
(0.998385 0.000562997 0)
(0.998229 -0.00110562 0)
(0.998204 0.000896354 0)
(0.99802 -0.00100696 0)
(0.997967 0.00132996 0)
(0.997779 -0.000655904 0)
(0.997732 0.00198138 0)
(0.997612 0.000114193 0)
(0.997684 0.00305077 0)
(0.997831 0.00122469 0)
(0.998373 0.00410375 0)
(0.999186 0.00167057 0)
(1.00025 0.00349 0)
(0.999793 0.000111793 0)
(1.00002 -0.00190569 0)
(0.998584 0.000162942 0)
(0.998344 -0.000703555 0)
(0.998345 0.000100761 0)
(0.998581 -0.000658685 0)
(0.998688 -0.000303574 0)
(0.998765 -0.000666059 0)
(0.998771 -0.000360285 0)
(0.998759 -0.000560753 0)
(0.998734 -0.000367705 0)
(0.9987 -0.000467962 0)
(0.998673 -0.000438065 0)
(0.998627 -0.000344379 0)
(0.998597 -0.000540823 0)
(0.998534 -0.000170514 0)
(0.998494 -0.000666598 0)
(0.998409 9.54968e-05 0)
(0.998348 -0.00069851 0)
(0.998241 0.000452228 0)
(0.998157 -0.000557437 0)
(0.998036 0.000947937 0)
(0.997948 -0.00011202 0)
(0.997853 0.00169052 0)
(0.99784 0.000737964 0)
(0.997855 0.00273793 0)
(0.998025 0.00184327 0)
(0.998282 0.00345758 0)
(0.998727 0.0015497 0)
(0.999326 0.00187989 0)
(1.00153 0.000166493 0)
(1.00003 -0.00175013 0)
(0.998663 -4.96647e-05 0)
(0.998425 -0.000512475 0)
(0.998378 -2.71458e-05 0)
(0.998649 -0.000267606 0)
(0.998725 -0.00053162 0)
(0.998848 -0.00035207 0)
(0.998813 -0.000615571 0)
(0.998844 -0.000276924 0)
(0.998776 -0.000609024 0)
(0.998783 -0.000220494 0)
(0.998717 -0.000598403 0)
(0.998709 -0.000176938 0)
(0.998646 -0.000564083 0)
(0.998615 -0.000129982 0)
(0.998551 -0.000495565 0)
(0.998495 -6.53866e-05 0)
(0.998417 -0.000355652 0)
(0.998341 0.000102488 0)
(0.998247 -6.10636e-05 0)
(0.998167 0.000485139 0)
(0.998075 0.000484226 0)
(0.998032 0.00117213 0)
(0.998003 0.00130778 0)
(0.998069 0.00205355 0)
(0.998162 0.00238666 0)
(0.998385 0.00320008 0)
(0.998861 0.00385322 0)
(0.999991 0.00490134 0)
(1.00376 0.00611218 0)
(1.00003 -0.00144871 0)
(0.998784 -0.000376828 0)
(0.998491 -0.000309688 0)
(0.998474 -0.000161871 0)
(0.998682 -0.000279003 0)
(0.998789 -0.000428614 0)
(0.998902 -0.00051369 0)
(0.998888 -0.00039457 0)
(0.998904 -0.000610739 0)
(0.998851 -0.000227197 0)
(0.998845 -0.000727574 0)
(0.998789 -1.99866e-05 0)
(0.998775 -0.000881628 0)
(0.998716 0.000209126 0)
(0.998687 -0.00102837 0)
(0.998617 0.000489126 0)
(0.998574 -0.00109194 0)
(0.998494 0.000790878 0)
(0.998437 -0.000964571 0)
(0.998352 0.00119514 0)
(0.99829 -0.000550447 0)
(0.998225 0.00178344 0)
(0.998183 0.000160916 0)
(0.998188 0.00249346 0)
(0.998275 0.00100413 0)
(0.998482 0.00350514 0)
(0.998859 0.00249953 0)
(0.999406 0.00636792 0)
(1.0002 0.0074191 0)
(1.00285 0.0124448 0)
(1.00001 -0.00157046 0)
(0.998905 -0.000262986 0)
(0.998558 -0.00058216 0)
(0.998531 0.000129143 0)
(0.998742 -0.000470076 0)
(0.998852 -0.000214253 0)
(0.998972 -0.00066222 0)
(0.99895 -0.000299913 0)
(0.998987 -0.000674919 0)
(0.998906 -0.000255581 0)
(0.998937 -0.000666771 0)
(0.998835 -0.000201048 0)
(0.998874 -0.000671851 0)
(0.998758 -0.000158662 0)
(0.998798 -0.000663166 0)
(0.998669 -8.62568e-05 0)
(0.998693 -0.000544965 0)
(0.998565 0.00010625 0)
(0.998572 -0.000236239 0)
(0.998456 0.000489695 0)
(0.998452 0.000303176 0)
(0.998361 0.00110329 0)
(0.998365 0.00105647 0)
(0.998342 0.00193502 0)
(0.998511 0.0020285 0)
(0.998721 0.00293628 0)
(0.999459 0.00309266 0)
(1.00063 0.00383552 0)
(1.00226 0.00394575 0)
(1.00291 0.00509769 0)
(0.999973 -0.000941343 0)
(0.999069 -0.00094283 0)
(0.998617 -1.0348e-05 0)
(0.998686 -0.000467198 0)
(0.99874 0.000251758 0)
(0.998969 -0.000879739 0)
(0.998987 0.000105293 0)
(0.999083 -0.00111013 0)
(0.999007 0.000213141 0)
(0.999044 -0.0011932 0)
(0.998954 0.000390817 0)
(0.998977 -0.00126979 0)
(0.998886 0.000567254 0)
(0.998902 -0.00133889 0)
(0.998807 0.000751531 0)
(0.998818 -0.00135902 0)
(0.998723 0.000950373 0)
(0.99873 -0.00123143 0)
(0.998636 0.00121454 0)
(0.998643 -0.000883514 0)
(0.998558 0.00168834 0)
(0.998579 -0.000231175 0)
(0.998532 0.00244153 0)
(0.998621 0.000810936 0)
(0.998703 0.00351291 0)
(0.998967 0.00183953 0)
(0.999274 0.00413168 0)
(0.999802 0.00131996 0)
(1.00073 0.00210682 0)
(1.00408 -0.000456627 0)
(1.00001 -0.00147301 0)
(0.999132 -0.000246419 0)
(0.998756 -0.000855072 0)
(0.998703 0.00048193 0)
(0.998852 -0.000879389 0)
(0.998986 0.000354018 0)
(0.999096 -0.00115049 0)
(0.999115 0.000233188 0)
(0.999123 -0.00119491 0)
(0.999085 0.000244801 0)
(0.99907 -0.00113088 0)
(0.999021 0.0002948 0)
(0.999003 -0.00103908 0)
(0.998952 0.000364814 0)
(0.99893 -0.000931879 0)
(0.998874 0.000461816 0)
(0.99885 -0.000771057 0)
(0.998792 0.000626867 0)
(0.998777 -0.000480269 0)
(0.998742 0.000965643 0)
(0.998738 3.56012e-05 0)
(0.998737 0.001577 0)
(0.998777 0.00087725 0)
(0.998835 0.00254059 0)
(0.998947 0.00202157 0)
(0.999102 0.00362374 0)
(0.999392 0.00302352 0)
(1.0001 0.00442258 0)
(1.00182 0.00446928 0)
(1.00622 0.00768798 0)
(1.00002 -0.000558895 0)
(0.999234 -0.0013301 0)
(0.99888 -4.06397e-06 0)
(0.998792 -0.000571498 0)
(0.99892 0.000453038 0)
(0.999047 -0.000846063 0)
(0.999167 0.000282245 0)
(0.999187 -0.00106296 0)
(0.999201 0.000226926 0)
(0.999165 -0.00111366 0)
(0.999153 0.000279586 0)
(0.999105 -0.00105498 0)
(0.999088 0.000361788 0)
(0.999035 -0.000956077 0)
(0.999015 0.000436684 0)
(0.998965 -0.000832325 0)
(0.998946 0.000542447 0)
(0.998912 -0.000616975 0)
(0.998902 0.000823031 0)
(0.998889 -0.000208635 0)
(0.998903 0.00130431 0)
(0.99893 0.00047424 0)
(0.998997 0.00205449 0)
(0.999094 0.00143198 0)
(0.999239 0.00314047 0)
(0.999435 0.00293688 0)
(0.999751 0.0050416 0)
(1.00049 0.0052734 0)
(1.00224 0.0068074 0)
(1.00672 0.00522222 0)
(1.00001 -0.00114423 0)
(0.999341 -0.000220214 0)
(0.999006 -0.00114151 0)
(0.998906 0.000576912 0)
(0.998992 -0.00101619 0)
(0.999122 0.000731664 0)
(0.999236 -0.00144066 0)
(0.999265 0.000626815 0)
(0.999281 -0.00168299 0)
(0.999251 0.000685351 0)
(0.999241 -0.00167179 0)
(0.999194 0.000804299 0)
(0.999179 -0.00154762 0)
(0.999128 0.000903982 0)
(0.99911 -0.00134259 0)
(0.999059 0.00101842 0)
(0.99905 -0.00107667 0)
(0.999022 0.00118577 0)
(0.999026 -0.000720112 0)
(0.999034 0.00146927 0)
(0.999073 -0.000185586 0)
(0.999123 0.00206469 0)
(0.999214 0.000651586 0)
(0.999358 0.00294162 0)
(0.999606 0.00172656 0)
(0.999966 0.00428271 0)
(1.00043 0.0040013 0)
(1.00098 0.00821593 0)
(1.00188 0.00962377 0)
(1.00518 0.0137442 0)
(0.999945 -0.000624705 0)
(0.999431 -0.00103598 0)
(0.999036 -0.000383758 0)
(0.998992 -0.00032744 0)
(0.999023 -1.01665e-05 0)
(0.999173 -0.000283356 0)
(0.99925 -0.000268729 0)
(0.999324 -0.000537808 0)
(0.999317 -0.000474893 0)
(0.999329 -0.000548822 0)
(0.999289 -0.000430136 0)
(0.999282 -0.000447258 0)
(0.999231 -0.000313419 0)
(0.999225 -0.000329934 0)
(0.999168 -0.000142529 0)
(0.999169 -0.000163765 0)
(0.999119 0.00011726 0)
(0.99914 9.82767e-05 0)
(0.999115 0.000455079 0)
(0.999172 0.000495248 0)
(0.999218 0.000947952 0)
(0.999319 0.00112064 0)
(0.999425 0.00176756 0)
(0.999588 0.00219286 0)
(0.99987 0.00297227 0)
(1.00043 0.00330236 0)
(1.00149 0.003834 0)
(1.00299 0.00390191 0)
(1.00479 0.00422249 0)
(1.0045 0.00365172 0)
(0.99986 -0.000529584 0)
(0.999689 -0.000893302 0)
(0.999103 -0.000511654 0)
(0.999258 -0.000267512 0)
(0.999025 -0.000113612 0)
(0.999385 -0.000236592 0)
(0.999239 -0.000298852 0)
(0.999521 -0.000450709 0)
(0.999326 -0.000412061 0)
(0.999533 -0.000504817 0)
(0.999314 -0.000321267 0)
(0.99948 -0.000452558 0)
(0.999266 -0.000165884 0)
(0.999417 -0.000345333 0)
(0.999218 2.03777e-05 0)
(0.999365 -0.000177892 0)
(0.999192 0.000243034 0)
(0.999348 9.14986e-05 0)
(0.999219 0.000550925 0)
(0.999406 0.000551667 0)
(0.999352 0.00102286 0)
(0.999609 0.00109014 0)
(0.999673 0.00161013 0)
(1 0.00176938 0)
(1.00012 0.00239038 0)
(1.0005 0.00275524 0)
(1.00074 0.00375075 0)
(1.00124 0.00437887 0)
(1.00168 0.00545248 0)
(1.00473 0.00596155 0)
(0.999929 -0.000884136 0)
(0.999591 -0.000380554 0)
(0.999239 -0.000932086 0)
(0.999196 0.000130472 0)
(0.999161 -0.000592735 0)
(0.999302 0.000248626 0)
(0.999355 -0.000783032 0)
(0.999461 1.66183e-06 0)
(0.999446 -0.000963599 0)
(0.999499 -5.88164e-05 0)
(0.999436 -0.000896788 0)
(0.999467 3.29669e-05 0)
(0.999391 -0.000733391 0)
(0.99942 0.000194293 0)
(0.999344 -0.000513589 0)
(0.999376 0.000418284 0)
(0.999325 -0.000225563 0)