/*--------------------------------*- C++ -*----------------------------------*\
| =========                 |                                                 |
| \\      /  F ield         | OpenFOAM: The Open Source CFD Toolbox           |
|  \\    /   O peration     | Version:  v2006                                 |
|   \\  /    A nd           | Website:  www.openfoam.com                      |
|    \\/     M anipulation  |                                                 |
\*---------------------------------------------------------------------------*/
FoamFile
{
    version     2.0;
    format      ascii;
    class       volScalarField;
    location    "1.1";
    object      p;
}
// * * * * * * * * * * * * * * * * * * * * * * * * * * * * * * * * * * * * * //

dimensions      [0 2 -2 0 0 0 0];


internalField   nonuniform List<scalar> 
26400
(
8.61645e-10
0.00221863
0.00209459
0.00230917
0.00174631
0.00206126
0.00168329
0.00201774
0.0017245
0.00202855
0.00178079
0.00206752
0.00184789
0.00212941
0.00193925
0.00223927
0.00208523
0.00241713
0.00233705
0.00272664
0.00274499
0.00322641
0.00339654
0.00404042
0.00444152
0.00535927
0.0061774
0.00775061
0.00950225
0.0121364
3.4331e-07
0.00221868
0.00209501
0.00230925
0.00174699
0.00206124
0.00168406
0.00201767
0.00172541
0.00202843
0.00178188
0.00206734
0.00184915
0.00212902
0.00194072
0.00223854
0.00208702
0.00241588
0.00233938
0.00272451
0.00274818
0.00322229
0.00340127
0.00403072
0.00445017
0.00532838
0.00619669
0.00760663
0.00949068
0.0114486
1.3326e-06
0.00221892
0.00209588
0.00230949
0.00174826
0.00206114
0.00168554
0.00201742
0.00172719
0.00202807
0.00178398
0.00206684
0.00185157
0.00212813
0.00194353
0.00223705
0.00209039
0.0024136
0.00234345
0.0027211
0.00275297
0.00321685
0.00340679
0.00402121
0.00445695
0.00530986
0.0061926
0.00752825
0.00937394
0.010789
3.4576e-06
0.00221971
0.0020971
0.0023101
0.00174989
0.00206119
0.00168745
0.00201724
0.00172945
0.00202773
0.00178657
0.00206629
0.00185452
0.00212707
0.00194695
0.00223519
0.00209437
0.00241067
0.00234814
0.00271662
0.00275838
0.00320978
0.00341284
0.00400904
0.00446287
0.00528308
0.00619279
0.00740465
0.00914786
0.010236
7.20715e-06
0.00222092
0.00209866
0.00231093
0.00175185
0.00206125
0.00168969
0.00201699
0.00173202
0.00202723
0.00178944
0.00206548
0.00185777
0.00212557
0.00195071
0.00223269
0.00209868
0.00240684
0.00235313
0.0027109
0.00276395
0.00320108
0.00341867
0.00399505
0.00446607
0.0052555
0.0061608
0.00731395
0.00879929
0.00978783
1.27531e-05
0.00222222
0.00210053
0.00231168
0.00175406
0.00206106
0.00169214
0.0020164
0.00173478
0.0020263
0.00179247
0.00206412
0.00186124
0.0021234
0.00195476
0.00222933
0.00210336
0.00240196
0.0023585
0.00270399
0.0027696
0.00319117
0.00342384
0.00398183
0.00446512
0.00524423
0.00609545
0.00723742
0.00841645
0.00923645
1.99332e-05
0.00222333
0.00210267
0.00231212
0.00175647
0.00206041
0.00169474
0.00201532
0.00173768
0.00202482
0.00179569
0.00206212
0.00186501
0.00212047
0.00195928
0.00222506
0.00210865
0.00239595
0.00236453
0.00269572
0.00277587
0.00317949
0.00342894
0.00396637
0.0044643
0.00520172
0.00606904
0.00706661
0.00825606
0.00882405
2.84114e-05
0.00222413
0.00210505
0.00231217
0.00175907
0.00205925
0.00169751
0.00201371
0.0017408
0.00202279
0.00179921
0.00205951
0.00186921
0.00211682
0.00196439
0.00221993
0.00211461
0.00238892
0.00237127
0.00268617
0.00278268
0.00316608
0.0034333
0.00394829
0.00446303
0.00516838
0.00601435
0.00690296
0.00793361
0.00838005
3.7848e-05
0.00222464
0.00210768
0.00231187
0.00176194
0.00205762
0.00170053
0.0020116
0.00174426
0.00202024
0.00180317
0.00205629
0.00187398
0.00211246
0.00197017
0.00221397
0.00212127
0.00238098
0.0023785
0.00267584
0.00278935
0.00315416
0.00343521
0.00393503
0.00444232
0.00516434
0.00589459
0.00680312
0.00729198
0.00788966
4.79988e-05
0.00222492
0.00211061
0.00231129
0.00176517
0.00205554
0.00170391
0.002009
0.00174818
0.00201713
0.00180771
0.00205239
0.00187946
0.00210727
0.00197675
0.002207
0.00212874
0.00237186
0.00238635
0.00266402
0.00279622
0.00313858
0.00343795
0.00391381
0.00443311
0.00512341
0.00582299
0.00667276
0.00697289
0.00734393
5.87362e-05
0.00222503
0.00211387
0.00231049
0.00176886
0.00205304
0.00170772
0.00200588
0.00175265
0.00201342
0.00181291
0.00204778
0.00188568
0.00210125
0.00198412
0.00219909
0.00213685
0.00236182
0.00239447
0.00265103
0.00280244
0.00312305
0.00343925
0.00389004
0.00442348
0.00505436
0.00579028
0.00650719
0.00705543
0.00672278
7.0028e-05
0.00222497
0.0021175
0.00230949
0.00177309
0.0020501
0.00171203
0.00200219
0.00175776
0.00200903
0.00181887
0.00204237
0.00189272
0.00209431
0.00199226
0.00219022
0.00214545
0.00235089
0.00240264
0.00263807
0.00280754
0.00310772
0.00343702
0.00386655
0.00440379
0.00499937
0.00572279
0.006334
0.0068962
0.00598316
8.19048e-05
0.0022247
0.00212153
0.00230827
0.00177796
0.00204668
0.00171691
0.00199784
0.00176357
0.00200388
0.00182561
0.00203612
0.00190057
0.00208645
0.00200102
0.00218056
0.00215428
0.00233941
0.00241036
0.00262509
0.00281075
0.00309286
0.00343067
0.00384472
0.00437125
0.00495615
0.00561382
0.0061522
0.00643539
0.00556629
9.44408e-05
0.00222411
0.00212598
0.00230682
0.00178356
0.00204273
0.00172242
0.00199277
0.00177013
0.00199793
0.00183315
0.00202902
0.00190916
0.00207788
0.00201019
0.00217043
0.00216307
0.00232824
0.00241682
0.00261299
0.00281059
0.00307948
0.00341812
0.00383162
0.00432695
0.00490659
0.0054926
0.00596315
0.00575042
0.00497918
0.000107744
0.00222309
0.0021309
0.00230507
0.00178998
0.00203817
0.00172862
0.00198688
0.0017775
0.00199112
0.00184156
0.00202101
0.00191844
0.00206857
0.00201974
0.00215968
0.00217162
0.00231717
0.00242181
0.0026014
0.00280865
0.00306432
0.00340639
0.00379415
0.0042909
0.00482132
0.0053781
0.00579309
0.00582649
0.00457592
0.000121949
0.00222146
0.00213631
0.00230299
0.00179735
0.00203295
0.00173557
0.00198011
0.0017857
0.00198337
0.0018508
0.00201222
0.00192822
0.00205865
0.00202929
0.00214911
0.00217912
0.00230685
0.00242468
0.00259081
0.00280441
0.00304769
0.00339313
0.00375705
0.00424919
0.00472366
0.00524863
0.00558031
0.00565621
0.003842
0.000137215
0.00221902
0.00214225
0.00230051
0.00180575
0.00202703
0.00174329
0.00197241
0.00179472
0.00197478
0.00186061
0.00200292
0.00193819
0.00204894
0.002038
0.00213986
0.00218449
0.00229862
0.0024239
0.0025829
0.00279353
0.00303733
0.00336044
0.00373329
0.00417875
0.0046429
0.00507294
0.00531423
0.0051356
0.00359402
0.000153746
0.0022155
0.00214873
0.0022976
0.00181528
0.00202034
0.0017518
0.00196376
0.00180446
0.00196548
0.00187091
0.0019931
0.0019481
0.00203973
0.00204556
0.00213204
0.00218756
0.00229229
0.00242026
0.00257624
0.00277958
0.00302883
0.00332404
0.00370129
0.00409961
0.00455205
0.00489131
0.00500634
0.00427514
0.00308823
0.000171765
0.00221063
0.00215579
0.00229418
0.00182604
0.00201286
0.00176109
0.00195416
0.00181483
0.00195542
0.00188167
0.00198297
0.00195745
0.00203077
0.00205169
0.00212524
0.00218866
0.00228596
0.00241661
0.00256544
0.00276966
0.00300093
0.00330258
0.00364304
0.00402795
0.00441138
0.00472769
0.00484843
0.0045182
0.00274293
0.00019146
0.00220413
0.00216339
0.0022903
0.00183803
0.0020047
0.00177101
0.00194384
0.00182558
0.00194505
0.00189217
0.00197537
0.00196568
0.00202381
0.00205567
0.00212035
0.00218753
0.00228026
0.00241109
0.00255475
0.00276002
0.00297422
0.00327702
0.0035754
0.00394459
0.0042549
0.00454087
0.00461014
0.00438592
0.0019136
0.000213299
0.00219555
0.00217161
0.00228578
0.00185148
0.00199564
0.00178166
0.00193254
0.00183675
0.00193386
0.0019024
0.00196369
0.00197333
0.00201742
0.00205791
0.00211664
0.00218399
0.00227579
0.0024007
0.00254581
0.00273804
0.00295673
0.00322801
0.00352335
0.00383726
0.00411317
0.00428498
0.00424641
0.003815
0.00199815
0.000237268
0.00218463
0.00218026
0.00228086
0.00186612
0.00198628
0.00179241
0.00192133
0.0018472
0.00192541
0.00191032
0.0019599
0.00197641
0.00201689
0.00205461
0.00211931
0.00217459
0.0022801
0.00238177
0.00254996
0.00269827
0.00294534
0.00315378
0.0034686
0.00371217
0.00397608
0.00401509
0.00379305
0.00274414
0.00164322
0.000264079
0.00217081
0.00218942
0.00227538
0.00188219
0.00197637
0.00180349
0.00190949
0.00185724
0.00191624
0.0019189
0.00195359
0.00198085
0.00201176
0.00205699
0.00211141
0.00217746
0.0022641
0.00238701
0.00251553
0.00269845
0.00288318
0.0031302
0.00336324
0.00360159
0.00374593
0.00380639
0.003683
0.00334223
0.00137774
0.000293952
0.00215374
0.00219892
0.00226937
0.00189961
0.00196606
0.00181452
0.00189717
0.00186581
0.00190563
0.0019259
0.00194849
0.00198357
0.00200762
0.00205695
0.00210526
0.00217447
0.00225162
0.002379
0.00249963
0.00267966
0.00284643
0.00307471
0.00327454
0.00347076
0.00355452
0.0035393
0.00334155
0.00298121
0.00111062
0.000326961
0.00213316
0.00220841
0.00226335
0.00191774
0.0019571
0.00182446
0.0018891
0.00187078
0.0019062
0.00192428
0.00195448
0.00197656
0.00201693
0.00204514
0.0021163
0.0021551
0.00226304
0.00233529
0.00250582
0.0026114
0.0028376
0.00296244
0.00320658
0.00331135
0.00341897
0.00321576
0.0027413
0.00151724
0.000823285
0.000363803
0.00210857
0.0022178
0.00225708
0.00193677
0.00194818
0.00183428
0.00187937
0.00187627
0.0019001
0.00192775
0.00194946
0.00198158
0.00200666
0.00205534
0.00209827
0.00217175
0.00223161
0.00235687
0.00244829
0.00260773
0.00275095
0.00293255
0.0030674
0.00316867
0.00315375
0.00304075
0.00280661
0.00242306
0.000566437
0.00040517
0.00207944
0.002227
0.0022505
0.00195648
0.0019383
0.001843
0.00187103
0.00187943
0.00189803
0.00192883
0.00194857
0.00198015
0.00200134
0.00205213
0.00208582
0.00216718
0.00220961
0.00235019
0.0024145
0.00260057
0.0026823
0.00288136
0.00293548
0.00301651
0.0028917
0.00271979
0.00243467
0.0021716
0.000383106
0.000450037
0.00204697
0.00223476
0.00224594
0.00197562
0.00193526
0.00184641
0.00186962
0.0018729
0.00190786
0.00191578
0.00196808
0.00195991
0.00203212
0.00202038
0.00212419
0.00211865
0.00224678
0.00228054
0.00243768
0.00249719
0.00266652
0.00274929
0.00286763
0.00283797
0.00269305
0.00223304
0.00150319
0.000517292
0.000890373
0.000499608
0.00200952
0.00224195
0.00224042
0.00199778
0.00193023
0.00185398
0.00186194
0.00187628
0.00190275
0.0019207
0.00196117
0.00196362
0.00201982
0.00202047
0.00210752
0.00211478
0.00222564
0.00226597
0.00240432
0.00246267
0.00261087
0.00266755
0.00275851
0.00270153
0.00252972
0.00200095
0.00116849
9.67724e-05
0.000540977
0.000555409
0.00196382
0.00224676
0.00223259
0.00201638
0.0019286
0.00185974
0.00185541
0.00188028
0.0018961
0.00192975
0.00195013
0.00197773
0.00200235
0.00204209
0.00207889
0.00213338
0.00218406
0.0022703
0.00234597
0.00243499
0.00251755
0.00258945
0.00260414
0.00257337
0.0024071
0.0021373
0.00170599
0.00111638
-0.0010167
0.000614502
0.00192918
0.00224282
0.00224245
0.00203274
0.00193166
0.00186173
0.00185132
0.00188021
0.00189267
0.00193238
0.00194498
0.00198156
0.00199297
0.00204619
0.00206256
0.00213193
0.00215573
0.00225254
0.00229822
0.00238417
0.00243161
0.00248758
0.00248253
0.00243586
0.00231271
0.00211034
0.0016168
0.000525052
-0.00322079
0.000681342
0.00187435
0.00224199
0.00220863
0.00206055
0.00193704
0.00186836
0.00184826
0.001881
0.00189198
0.00192885
0.00194748
0.00197254
0.00199834
0.0020318
0.00206836
0.00211083
0.00215548
0.00221377
0.00227021
0.00231753
0.00235505
0.00239108
0.00237162
0.00228486
0.00207013
0.00169059
0.00113861
0.00034258
-0.00226027
0.000746114
0.0018418
0.00222239
0.00224422
0.00205674
0.00195565
0.00185871
0.00186343
0.00186017
0.00191203
0.00190281
0.00197303
0.00194432
0.00202379
0.00199883
0.00208273
0.00206809
0.0021448
0.00215475
0.0022234
0.0022317
0.0022727
0.00228501
0.00227282
0.00212656
0.0018867
0.00117291
-2.42756e-05
-0.00167316
-0.00240935
0.000824523
0.00179118
0.00220899
0.00219704
0.00209636
0.00195517
0.00188182
0.00184816
0.00188022
0.00189197
0.00192431
0.00194905
0.00196857
0.0019971
0.00202368
0.00205425
0.00208062
0.00210206
0.00213072
0.00215159
0.00216533
0.00216513
0.00215762
0.00210108
0.00197581
0.00174583
0.00139991
0.000915081
-2.16222e-05
-0.00325926
0.000894598
0.00176357
0.00217562
0.002219
0.00209782
0.00197346
0.0018854
0.00185074
0.0018745
0.00188929
0.00191801
0.00194386
0.00196316
0.00198778
0.00201421
0.00203716
0.00205608
0.00207495
0.0020913
0.00209983
0.00208677
0.0020483
0.00201069
0.00193061
0.0018292
0.00165604
0.00138134
0.000667231
-0.00101842
-0.00539461
0.000973128
0.00173061
0.00213833
0.00220053
0.00211363
0.00198634
0.00189925
0.00185489
0.00187993
0.00188707
0.00191663
0.0019404
0.00195924
0.00198406
0.00200863
0.00203087
0.00204274
0.00204254
0.00204397
0.00202591
0.00199419
0.00193333
0.00186428
0.0017527
0.00161226
0.00140347
0.00109239
0.000355532
-0.00137103
-0.0057984
0.00106077
0.00171047
0.00209647
0.00217595
0.00212509
0.00199754
0.00191412
0.00186094
0.00188045
0.00188251
0.00190935
0.00193332
0.00195273
0.00197478
0.00199695
0.00201227
0.00201462
0.00201012
0.00199646
0.00195513
0.00190296
0.00181819
0.00172487
0.00156666
0.00132436
0.000951202
0.000492252
-7.13656e-05
-0.000978099
-0.00422444
0.00110029
0.00172726
0.00204919
0.00219325
0.00209131
0.00204769
0.00191021
0.00190089
0.00186172
0.00189913
0.00188566
0.00193801
0.00193487
0.00196845
0.00197703
0.00198764
0.00198047
0.00196656
0.00194341
0.00188994
0.00180262
0.00170018
0.00155824
0.00140788
0.00110406
0.00056712
-0.000517721
-0.00201138
-0.00389383
-0.00361717
0.00122586
0.00167888
0.00201636
0.00212916
0.00212358
0.00203474
0.00195177
0.00189353
0.0018833
0.00187984
0.00189155
0.00192062
0.00193552
0.00195455
0.00196765
0.00196399
0.0019505
0.00191695
0.00188088
0.00180669
0.00170858
0.00155573
0.00136146
0.00113507
0.000902223
0.000619888
0.000282052
-0.000110355
-0.000620495
-0.00351046
0.00124207
0.00172374
0.0019739
0.00215156
0.00208651
0.00207891
0.00194379
0.0019233
0.00186929
0.00188793
0.00187766
0.00191417
0.00192329
0.001935
0.00194307
0.00192988
0.00191295
0.00187514
0.00181288
0.00173988
0.00162193
0.00149479
0.00132177
0.00112236
0.000725695
-1.48648e-05
-0.00127561
-0.00290851
-0.00482279
-0.0042133
0.00136431
0.00167614
0.00195207
0.00208655
0.00210683
0.0020661
0.00199649
0.00192801
0.00189487
0.00187354
0.00187414
0.00189552
0.00191049
0.00191653
0.00191726
0.00189694
0.0018601
0.00180855
0.00175004
0.00166483
0.00155148
0.00140526
0.00121715
0.000962181
0.000646932
0.000304378
-3.16084e-05
-0.000475886
-0.00170128
-0.00573979
0.00143079
0.00167624
0.00193278
0.00206346
0.00210488
0.00206827
0.0020141
0.00192983
0.00189861
0.00187225
0.00186943
0.00188262
0.0018893
0.00189174
0.00188461
0.00186804
0.00182163
0.00175431
0.00169431
0.00159439
0.0014762
0.00130873
0.00112344
0.000892321
0.000628164
0.000248707
-0.000351686
-0.00149487
-0.00373044
-0.00875383
0.00145347
0.00171657
0.00191607
0.00203863
0.0020827
0.00207725
0.00202904
0.00195753
0.00191105
0.00188582
0.00186496
0.00186847
0.00186943
0.0018556
0.00184414
0.0018143
0.00176626
0.00170185
0.00163256
0.00153008
0.00139576
0.00121643
0.00100768
0.000751899
0.000440412
2.12454e-06
-0.000689891
-0.00191533
-0.00425015
-0.00927245
0.00159307
0.00167154
0.00189832
0.00200682
0.00207022
0.00206171
0.00203118
0.00196266
0.00192202
0.00189146
0.00185982
0.00185345
0.00184218
0.00182969
0.00180711
0.00177219
0.00172755
0.00165182
0.00157877
0.00146467
0.00132549
0.0011264
0.000876474
0.000520242
7.1166e-05
-0.00046293
-0.0010397
-0.00181921
-0.00335904
-0.0079892
0.00152605
0.00181162
0.00187231
0.0020291
0.00200874
0.00209041
0.00200238
0.00200158
0.00191255
0.00191293
0.00184421
0.00183359
0.00180435
0.00177927
0.00175417
0.0017212
0.00168678
0.00161281
0.00151967
0.00141471
0.00124546
0.00106364
0.000777328
0.000396437
-0.000323962
-0.00143504
-0.00297454
-0.00483291
-0.00690233
-0.00597204
0.00169338
0.00174571
0.0018768
0.00196871
0.00201558
0.002049
0.00204038
0.00199335
0.00195524
0.00191597
0.00185508
0.00180491
0.00176885
0.00172836
0.00169536
0.00165816
0.0016128
0.00153854
0.00145367
0.00133858
0.00118433
0.000975527
0.000704288
0.000355521
-6.14561e-05
-0.000538113
-0.00112375
-0.00207272
-0.00413912
-0.00937443
0.00169627
0.00176543
0.0018969
0.00196807
0.00201243
0.00203092
0.00203224
0.00199098
0.0019528
0.00191187
0.00184381
0.00179072
0.001737
0.00169283
0.00164627
0.00159434
0.00154929
0.0014699
0.00139109
0.00127146
0.00112867
0.000925044
0.000690724
0.000379264
-3.03076e-05
-0.000701071
-0.00176863
-0.00357443
-0.00664005
-0.0125003
0.00171879
0.00184494
0.0019073
0.00195744
0.00198437
0.0020047
0.00201848
0.00199341
0.00196666
0.00191719
0.00185107
0.00176722
0.00169239
0.00163152
0.00157231
0.0015325
0.00147954
0.00141427
0.00132352
0.00121516
0.00106707
0.000879212
0.000635628
0.000318353
-0.000145877
-0.000840531
-0.00192247
-0.00367316
-0.00678579
-0.0128029
0.00180435
0.00184339
0.00189951
0.00194453
0.00196597
0.00198913
0.00200223
0.00199337
0.00196775
0.00192318
0.00183163
0.00172815
0.00164441
0.00157518
0.00151905
0.00147004
0.00141985
0.00135125
0.00126216
0.00114926
0.00100285
0.000810638
0.000560169
0.000222477
-0.000258679
-0.000978486
-0.00210644
-0.00398551
-0.00733669
-0.0136747
0.00180856
0.00187954
0.00193398
0.00195693
0.00195906
0.00196907
0.00198427
0.00197753
0.00195418
0.0019041
0.00181643
0.00170882
0.00161292
0.00153361
0.00146492
0.00140782
0.00135218
0.00128342
0.00119289
0.00107732
0.000927074
0.000729272
0.00046714
0.000112756
-0.000391958
-0.00115285
-0.00236391
-0.00437898
-0.00789385
-0.01438
0.00186018
0.00191685
0.00194794
0.00195727
0.00194961
0.00195095
0.00196028
0.00195048
0.00192274
0.00187681
0.00179539
0.00168704
0.00158232
0.00149168
0.00141174
0.0013442
0.0012815
0.00121012
0.00111777
0.000998338
0.000842121
0.00063629
0.000361811
-1.2369e-05
-0.000549929
-0.0013641
-0.00265099
-0.00475902
-0.00836891
-0.0149048
0.00189716
0.00193828
0.00196062
0.0019645
0.00194983
0.00193972
0.00193814
0.00192172
0.00188848
0.0018423
0.00176672
0.0016621
0.00155278
0.00145307
0.00136279
0.00128346
0.00121111
0.00113385
0.00103757
0.000912936
0.00074939
0.00053343
0.000244279
-0.000153367
-0.000725854
-0.00158694
-0.00293
-0.00509874
-0.00875326
-0.0153066
0.00193327
0.00196478
0.00197821
0.00197539
0.0019525
0.00192948
0.00191565
0.00189066
0.00184955
0.00179952
0.00172808
0.00162927
0.00151941
0.00141399
0.00131533
0.00122486
0.00114108
0.00105486
0.000952027
0.000820489
0.000647962
0.000419913
0.000113867
-0.000307493
-0.000910712
-0.00180788
-0.00318993
-0.00539343
-0.00907612
-0.0156506
0.00197073
0.00199257
0.00199368
0.00198188
0.00195237
0.00191889
0.00189284
0.00185857
0.00180866
0.00175245
0.00168275
0.0015896
0.00148159
0.00137282
0.00126788
0.00116744
0.00107158
0.000974012
0.000861931
0.000721411
0.000538546
0.000297355
-2.53255e-05
-0.000467737
-0.00109571
-0.00201977
-0.00342637
-0.00564848
-0.00934262
-0.015924
0.00200601
0.00201896
0.00200962
0.00198841
0.00195151
0.00190788
0.00187025
0.00182705
0.00176884
0.00170512
0.00163408
0.00154454
0.00143875
0.00132777
0.00121762
0.00110902
0.00100177
0.000891737
0.000768203
0.000616975
0.000422742
0.000168512
-0.000169436
-0.000629466
-0.00127678
-0.00222004
-0.00364209
-0.00587617
-0.00958039
-0.0161735
0.00203948
0.00204489
0.00202615
0.00199523
0.00194978
0.00189579
0.00184662
0.00179464
0.00172901
0.0016574
0.00158227
0.00149413
0.00139028
0.0012779
0.0011631
0.0010473
0.000930114
0.000807968
0.000672019
0.000508788
0.000302607
3.57269e-05
-0.000315791
-0.000790366
-0.00145276
-0.00240937
-0.00384261
-0.00608571
-0.00979683
-0.0163982
0.00207076
0.00207023
0.00204317
0.0020024
0.00194736
0.00188255
0.00182145
0.00176073
0.0016888
0.00160967
0.00152882
0.00143985
0.00133697
0.00122323
0.0011044
0.000981872
0.000855752
0.000722353
0.000574206
0.00039866
0.000180446
-9.85138e-05
-0.00046216
-0.000948901
-0.00162235
-0.00258874
-0.00403074
-0.00628186
-0.00999907
-0.016602
0.00209789
0.00209421
0.00206118
0.0020101
0.00194443
0.00186827
0.00179505
0.00172556
0.0016477
0.00156199
0.00147459
0.00138282
0.00127942
0.0011643
0.0010415
0.000912764
0.000778162
0.000634571
0.000474937
0.000287668
5.77917e-05
-0.000232369
-0.000606873
-0.00110364
-0.00178556
-0.00275896
-0.00420734
-0.00646491
-0.0101905
-0.0168045
0.00212422
0.00211695
0.00207739
0.00201633
0.00194048
0.00185355
0.00176845
0.00168935
0.00160531
0.00151387
0.00141993
0.00132371
0.00121836
0.00110133
0.00097472
0.000840155
0.000697582
0.000544547
0.000374353
0.000176234
-6.43469e-05
-0.000364769
-0.000748964
-0.0012539
-0.0019424
-0.00292078
-0.00437296
-0.00663386
-0.0103643
-0.0169871
0.00215094
0.00213826
0.00209058
0.00202056
0.00193524
0.00183835
0.00174182
0.00165239
0.00156171
0.00146481
0.00136475
0.00126304
0.00115449
0.00103471
0.000904419
0.000764238
0.000614434
0.000452541
0.000272669
6.46808e-05
-0.000185418
-0.000494929
-0.000887232
-0.001399
-0.00209268
-0.00307464
-0.00452852
-0.00678885
-0.0105141
-0.0171274
0.00217458
0.0021577
0.00210316
0.00202387
0.00192885
0.00182235
0.00171502
0.00161514
0.00151698
0.00141469
0.00130889
0.00120143
0.00108846
0.00096515
0.000830988
0.000685648
0.000529069
0.000359004
0.00017026
-4.65942e-05
-0.000304996
-0.000622015
-0.00102089
-0.00153822
-0.00223604
-0.0032203
-0.00467456
-0.00693395
-0.0106591
-0.0172777
0.00219525
0.00217529
0.00211493
0.00202631
0.00192131
0.00180525
0.00168775
0.00157757
0.0014713
0.00136339
0.00125226
0.00113904
0.00102085
0.000893253
0.000754903
0.000604751
0.000441946
0.000264498
6.76952e-05
-0.000156965
-0.000422278
-0.000745221
-0.00114934
-0.00167115
-0.00237234
-0.00335839
-0.0048131
-0.0070724
-0.0107982
-0.017418
0.00221476
0.00219123
0.00212462
0.00202757
0.00191259
0.00178688
0.00165964
0.00153965
0.00142506
0.00131101
0.00119469
0.00107585
0.000952127
0.000819588
0.000676779
0.00052199
0.000353713
0.000169683
-3.42983e-05
-0.000265683
-0.000536615
-0.000864217
-0.00127238
-0.00179777
-0.00250169
-0.00348936
-0.00494463
-0.00720399
-0.0109294
-0.0175482
0.00223179
0.00220506
0.00213277
0.00202758
0.00190277
0.00176733
0.00163074
0.0015015
0.0013785
0.0012578
0.0011361
0.0010119
0.000882665
0.000744948
0.0005974
0.000438106
0.000264914
7.5162e-05
-0.00013503
-0.000372111
-0.000647655
-0.000978847
-0.00139002
-0.00191805
-0.00262404
-0.00361279
-0.00506822
-0.00732733
-0.0110528
-0.0176712
0.00224635
0.00221675
0.00213913
0.0020261
0.00189184
0.00174682
0.00160118
0.00146312
0.00133178
0.00120407
0.00107678
0.00094742
0.000812808
0.000669837
0.000517395
0.000353677
0.000176058
-1.85916e-05
-0.000233913
-0.000475743
-0.000755094
-0.00108904
-0.00150232
-0.00203208
-0.00273929
-0.00372834
-0.00518297
-0.00744075
-0.0111661
-0.0177889
0.00225953
0.00222664
0.0021432
0.00202275
0.00187961
0.00172536
0.001571
0.00142453
0.00128511
0.0011502
0.00101707
0.000882575
0.000742757
0.00059456
0.000437287
0.000269316
8.77897e-05
-0.000110872
-0.000330381
-0.000576218
-0.000858733
-0.0011948
-0.0016094
-0.00214007
-0.00284771
-0.00383632
-0.00528925
-0.00754411
-0.0112658
-0.0178862
0.00227064
0.00223438
0.00214514
0.00201754
0.00186617
0.00170318
0.00154035
0.0013858
0.00123858
0.00109642
0.000957202
0.000817583
0.000672828
0.00051963
0.000357699
0.000185703
7.32104e-07
-0.000201181
-0.000424096
-0.000673267
-0.000958392
-0.00129603
-0.00171134
-0.00224222
-0.00294964
-0.00393729
-0.00538807
-0.00763972
-0.0113584
-0.0179792
0.00227914
0.00223994
0.0021455
0.00201121
0.00185206
0.00168058
0.00150939
0.00134695
0.00119223
0.00104297
0.00089759
0.000752878
0.000603429
0.000445529
0.000279155
0.000103344
-8.46294e-05
-0.000289175
-0.000514774
-0.000766602
-0.00105383
-0.00139263
-0.00180819
-0.00233879
-0.00304563
-0.00403233
-0.00548162
-0.00773121
-0.0114474
-0.0180668
0.00228469
0.00224322
0.00214441
0.00200398
0.00183742
0.0016577
0.00147826
0.00130816
0.00114624
0.00099019
0.000838686
0.000688879
0.000534941
0.000372703
0.000202187
2.28765e-05
-0.000167751
-0.000374423
-0.000602095
-0.000855979
-0.00114488
-0.00148455
-0.00190015
-0.00243023
-0.00313634
-0.00412222
-0.00557068
-0.00781984
-0.0115373
-0.0181605
0.00228786
0.00224439
0.00214162
0.0019955
0.00182205
0.00163461
0.00144729
0.00126977
0.00110095
0.000938394
0.00078089
0.000626037
0.000467873
0.000301692
0.00012741
-5.5048e-05
-0.000248041
-0.000456483
-0.000685771
-0.000941246
-0.00123146
-0.00157179
-0.00198732
-0.00251683
-0.00322223
-0.00420748
-0.00565549
-0.00790438
-0.0116219
-0.0182454
0.00228948
0.00224374
0.00213688
0.00198538
0.00180572
0.00161135
0.00141674
0.00123215
0.00105671
0.000887923
0.000724698
0.000564967
0.000402808
0.000233079
5.54547e-05
-0.000129911
-0.000325064
-0.000535033
-0.000765583
-0.00102228
-0.00131349
-0.00165428
-0.00206965
-0.00259858
-0.00330326
-0.00428786
-0.00573528
-0.00798355
-0.0117002
-0.0183229
0.002289
0.00224119
0.00213068
0.00197433
0.00178894
0.00158815
0.00138677
0.00119557
0.0010139
0.000839235
0.000670627
0.000506271
0.000340325
0.00016737
-1.32405e-05
-0.000201296
-0.000398477
-0.000609783
-0.000841296
-0.00109887
-0.00139078
-0.00173186
-0.00214699
-0.00267528
-0.00337915
-0.00436286
-0.0058093
-0.0080564
-0.0117718
-0.018394
0.00228687
0.00223721
0.0021234
0.00196261
0.00177197
0.00156526
0.00135759
0.00116025
0.000972833
0.000792726
0.000619078
0.000450371
0.000280859
0.000104935
-7.83151e-05
-0.000268774
-0.000467849
-0.000680355
-0.000912593
-0.00117073
-0.00146311
-0.00180435
-0.00221916
-0.00274669
-0.00344953
-0.0044321
-0.0058773
-0.00812316
-0.0118376
-0.0184598
0.00228334
0.00223202
0.00211525
0.00195045
0.00175507
0.00154301
0.00132955
0.00112653
0.000933846
0.000748769
0.000570441
0.000397666
0.000224865
4.62434e-05
-0.000139336
-0.000331878
-0.000532659
-0.000746255
-0.000979064
-0.00123753
-0.00153014
-0.00187138
-0.00228576
-0.00281243
-0.00351412
-0.00449546
-0.00593948
-0.00818431
-0.0118981
-0.0185206
0.00227878
0.00222599
0.0021066
0.00193818
0.00173857
0.00152175
0.00130306
0.00109479
0.000897281
0.000707741
0.000525181
0.000348645
0.000172837
-8.17654e-06
-0.000195795
-0.000390124
-0.000592377
-0.000806937
-0.0010402
-0.00129883
-0.00159146
-0.00193256
-0.0023465
-0.00287238
-0.00357303
-0.00455323
-0.00599615
-0.00824006
-0.0119533
-0.0185762
0.00227364
0.00221955
0.00209784
0.0019262
0.00172281
0.00150181
0.00127851
0.0010655
0.000863572
0.000670069
0.00048382
0.000303915
0.000125332
-5.78111e-05
-0.000247161
-0.000442993
-0.000646492
-0.000861883
-0.0010955
-0.00135419
-0.00164677
-0.0019877
-0.00240128
-0.00292652
-0.00362631
-0.00460552
-0.00604746
-0.00829049
-0.0120032
-0.0186263
0.00226836
0.00221313
0.00208944
0.001915
0.00170827
0.00148362
0.00125635
0.00103917
0.000833346
0.000636391
0.000446992
0.000264177
8.31012e-05
-0.000101966
-0.000292765
-0.000489803
-0.000694344
-0.000910481
-0.00114444
-0.00140316
-0.00169563
-0.00203641
-0.00244971
-0.00297449
-0.00367366
-0.00465221
-0.00609351
-0.00833597
-0.0120482
-0.0186713
0.00226336
0.00220721
0.00208188
0.00190508
0.00169543
0.00146764
0.00123706
0.00101642
0.000807304
0.000607495
0.000415538
0.000230334
4.71742e-05
-0.000139519
-0.000331503
-0.000529456
-0.000734819
-0.000951617
-0.0011859
-0.00144462
-0.00173694
-0.00207757
-0.00249068
-0.0030152
-0.00371401
-0.00469217
-0.00613322
-0.00837566
-0.0120882
-0.018712
0.00225931
0.00220227
0.00207548
0.00189668
0.00168459
0.00145428
0.00122115
0.000997905
0.00078626
0.000584311
0.000390536
0.000203618
1.88996e-05
-0.000169022
-0.000361896
-0.000560483
-0.000766377
-0.000983643
-0.00121817
-0.00147684
-0.00176897
-0.00210939
-0.00252233
-0.00304663
-0.00374517
-0.00472309
-0.00616403
-0.00840659
-0.0121195
-0.0187437
0.00225714
0.00219945
0.002071
0.0018898
0.00167487
0.00144175
0.00120608
0.000980444
0.000766549
0.000562606
0.000367131
0.000178615
-7.63769e-06
-0.000196904
-0.000390877
-0.000590363
-0.000797019
-0.00101499
-0.0012501
-0.00150911
-0.00180134
-0.00214172
-0.0025545
-0.00307845
-0.00377639
-0.00475348
-0.00619353
-0.00843547
-0.0121488
-0.0187764
0.0141696
0.0138713
0.0123834
0.0102138
0.0074214
0.00413524
0.000518731
-0.00306783
-0.00590655
-0.00735181
-0.0074189
-0.00666057
-0.00565109
-0.00471758
-0.00398842
-0.00348275
-0.00316597
-0.00298602
-0.00289402
-0.00285211
-0.00283405
-0.00282337
-0.00281095
-0.00279275
-0.00276798
-0.00273774
-0.00270394
-0.00266861
-0.00263354
-0.00260002
-0.00256882
-0.00254032
-0.00251456
-0.00249139
-0.00247061
-0.002452
-0.00243539
-0.00242061
-0.00240757
-0.00239617
-0.00238632
-0.00237792
-0.00237086
-0.00236505
-0.00236038
-0.00235675
-0.00235407
-0.00235226
-0.00235126
-0.00235103
-0.00235153
-0.00235274
-0.00235462
-0.00235717
-0.00236035
-0.00236416
-0.00236857
-0.00237357
-0.00237913
-0.00238522
-0.00239183
-0.00239893
-0.0024065
-0.00241451
-0.00242295
-0.00243181
-0.00244107
-0.00245073
-0.00246076
-0.00247115
-0.0024819
-0.00249298
-0.0025044
-0.00251614
-0.00252817
-0.00254052
-0.00255313
-0.00256603
-0.00257917
-0.00259258
-0.00260623
-0.00262014
-0.00263428
-0.00264867
-0.00266328
-0.00267811
-0.00269314
-0.0027084
-0.00272387
-0.00273957
-0.00275548
-0.00277162
-0.00278794
-0.00280446
-0.00282118
-0.0028381
-0.00285524
-0.00287259
-0.00289015
-0.0029079
-0.00292582
-0.00294389
-0.00296212
-0.00298049
-0.00299902
-0.0030177
-0.00303652
-0.00305546
-0.00307449
-0.00309362
-0.00311284
-0.00313217
-0.00315161
-0.00317118
-0.00319082
-0.00321055
-0.00323038
-0.00325031
-0.00327039
-0.00329063
-0.003311
-0.00333151
-0.00335215
-0.00337293
-0.00339387
-0.00341496
-0.0034362
-0.00345757
-0.00347905
-0.00350062
-0.00352229
-0.00354405
-0.0035659
-0.00358781
-0.00360979
-0.00363182
-0.00365391
-0.00367611
-0.00369837
-0.00372073
-0.00374315
-0.00376568
-0.00378828
-0.00381101
-0.00383384
-0.00385678
-0.0038798
-0.00390291
-0.0039261
-0.00394937
-0.00397273
-0.00399617
-0.00401968
-0.00404327
-0.00406695
-0.00409071
-0.00411454
-0.00413845
-0.00416241
-0.00418645
-0.00421053
-0.00423469
-0.00425888
-0.00428314
-0.00430746
-0.00433185
-0.00435633
-0.00438089
-0.00440556
-0.00443033
-0.00445524
-0.00448025
-0.00450542
-0.00453068
-0.00455609
-0.00458159
-0.00460722
-0.00463294
-0.00465875
-0.00468464
-0.00471061
-0.00473665
-0.00476273
-0.0047889
-0.00481509
-0.00484137
-0.00486768
-0.00489411