/*--------------------------------*- C++ -*----------------------------------*\
| =========                 |                                                 |
| \\      /  F ield         | OpenFOAM: The Open Source CFD Toolbox           |
|  \\    /   O peration     | Version:  v2006                                 |
|   \\  /    A nd           | Website:  www.openfoam.com                      |
|    \\/     M anipulation  |                                                 |
\*---------------------------------------------------------------------------*/
FoamFile
{
    version     2.0;
    format      ascii;
    class       surfaceScalarField;
    location    "1.1";
    object      phi;
}
// * * * * * * * * * * * * * * * * * * * * * * * * * * * * * * * * * * * * * //

dimensions      [0 3 -1 0 0 0 0];
oriented        oriented;


internalField   nonuniform List<scalar> 
52390
(
1.17008e-06
-3.18965e-07
1.17002e-06
2.73657e-07
1.17301e-06
-2.50273e-07
1.17331e-06
2.21855e-07
1.17679e-06
-2.14432e-07
1.17682e-06
1.6865e-07
1.1802e-06
-1.69503e-07
1.18005e-06
1.33524e-07
1.18331e-06
-1.32472e-07
1.183e-06
1.01214e-07
1.18613e-06
-1.06844e-07
1.18564e-06
7.17633e-08
1.18852e-06
-9.09218e-08
1.18775e-06
5.11941e-08
1.19039e-06
-7.62198e-08
1.18934e-06
3.95359e-08
1.19187e-06
-6.09991e-08
1.19053e-06
3.18027e-08
1.19306e-06
-4.73655e-08
1.19135e-06
2.50755e-08
1.19396e-06
-3.68832e-08
1.1917e-06
1.86527e-08
1.19445e-06
-2.88386e-08
1.19142e-06
1.28705e-08
1.19436e-06
-2.15873e-08
1.19047e-06
7.93185e-09
1.19302e-06
-1.14765e-08
1.18684e-06
4.34157e-09
1.18237e-06
1.86242e-08
2.36058e-08
1.1539e-06
1.22713e-06
-3.21834e-07
1.22759e-06
2.73194e-07
1.2314e-06
-2.54077e-07
1.23227e-06
2.20987e-07
1.23609e-06
-2.18257e-07
1.23645e-06
1.68288e-07
1.23982e-06
-1.72874e-07
1.24007e-06
1.33279e-07
1.24301e-06
-1.35411e-07
1.24326e-06
1.00967e-07
1.24573e-06
-1.09319e-07
1.24601e-06
7.14854e-08
1.24788e-06
-9.27953e-08
1.24821e-06
5.08637e-08
1.24941e-06
-7.74176e-08
1.24997e-06
3.89745e-08
1.25045e-06
-6.14725e-08
1.25143e-06
3.08138e-08
1.25104e-06
-4.69717e-08
1.25266e-06
2.34554e-08
1.25114e-06
-3.53623e-08
1.25358e-06
1.62142e-08
1.25057e-06
-2.58304e-08
1.25402e-06
9.42196e-09
1.24916e-06
-1.67308e-08
1.25362e-06
3.47819e-09
1.24657e-06
-4.4323e-09
1.24989e-06
1.02204e-09
1.23802e-06
3.04901e-08
3.89057e-08
1.22272e-06
1.2855e-06
-3.24552e-07
1.28896e-06
2.69739e-07
1.29169e-06
-2.56815e-07
1.29503e-06
2.17653e-07
1.29716e-06
-2.20387e-07
1.29993e-06
1.65514e-07
1.30119e-06
-1.74135e-07
1.30387e-06
1.30603e-07
1.30431e-06
-1.35852e-07
1.30704e-06
9.82388e-08
1.30668e-06
-1.08965e-07
1.30951e-06
6.86584e-08
1.3083e-06
-9.15891e-08
1.31133e-06
4.78388e-08
1.30927e-06
-7.53553e-08
1.31266e-06
3.55831e-08
1.30977e-06
-5.85826e-08
1.31357e-06
2.70109e-08
1.30989e-06
-4.32858e-08
1.31402e-06
1.93165e-08
1.30961e-06
-3.09464e-08
1.31386e-06
1.19676e-08
1.30888e-06
-2.08528e-08
1.31283e-06
5.47007e-09
1.30771e-06
-1.16064e-08
1.31054e-06
6.48426e-10
1.30615e-06
-4.70845e-11
1.30373e-06
3.44583e-09
1.30083e-06
3.33886e-08
6.14144e-08
1.27832e-06
1.34584e-06
-3.26289e-07
1.3519e-06
2.63677e-07
1.35313e-06
-2.58048e-07
1.35868e-06
2.12106e-07
1.35883e-06
-2.20537e-07
1.36376e-06
1.60583e-07
1.36288e-06
-1.73256e-07
1.36754e-06
1.25948e-07
1.36575e-06
-1.34067e-07
1.3702e-06
9.37905e-08
1.36768e-06
-1.06439e-07
1.37189e-06
6.44401e-08
1.36876e-06
-8.84508e-08
1.37286e-06
4.37345e-08
1.36929e-06
-7.17871e-08
1.37338e-06
3.14997e-08
1.36954e-06
-5.47457e-08
1.3735e-06
2.30526e-08
1.36953e-06
-3.93181e-08
1.37317e-06
1.56748e-08
1.3692e-06
-2.6973e-08
1.37228e-06
8.88791e-09
1.36846e-06
-1.7036e-08
1.37065e-06
3.28039e-09
1.36737e-06
-8.3239e-09
1.36779e-06
2.2524e-10
1.366e-06
1.74859e-09
1.36074e-06
8.69594e-09
1.36022e-06
3.39091e-08
8.46464e-08
1.33699e-06
1.40856e-06
-3.26495e-07
1.41603e-06
2.56209e-07
1.41572e-06
-2.57744e-07
1.42241e-06
2.05421e-07
1.42093e-06
-2.19054e-07
1.42693e-06
1.54582e-07
1.42464e-06
-1.70971e-07
1.43009e-06
1.205e-07
1.42716e-06
-1.31134e-07
1.43202e-06
8.89247e-08
1.42868e-06
-1.03094e-07
1.43291e-06
6.02046e-08
1.42937e-06
-8.49074e-08
1.4332e-06
3.99086e-08
1.42969e-06
-6.82772e-08
1.43326e-06
2.79247e-08
1.42988e-06
-5.13664e-08
1.43314e-06
1.97937e-08
1.4299e-06
-3.6074e-08
1.43272e-06
1.28523e-08
1.42958e-06
-2.38324e-08
1.43182e-06
6.64779e-09
1.42883e-06
-1.40445e-08
1.43022e-06
1.88804e-09
1.42769e-06
-5.79659e-09
1.42741e-06
5.02752e-10
1.42578e-06
3.38422e-09
1.42129e-06
1.31822e-08
1.41835e-06
3.68477e-08
1.10626e-07
1.39237e-06
1.47426e-06
-3.25082e-07
1.48182e-06
2.48656e-07
1.48029e-06
-2.56222e-07
1.48693e-06
1.9878e-07
1.48446e-06
-2.16582e-07
1.49042e-06
1.48624e-07
1.48758e-06
-1.68125e-07
1.49283e-06
1.15243e-07
1.48968e-06
-1.27987e-07
1.49418e-06
8.44335e-08
1.49089e-06
-9.98042e-08
1.4946e-06
5.64861e-08
1.49133e-06
-8.16287e-08
1.49462e-06
3.661e-08
1.49153e-06
-6.51866e-08
1.49466e-06
2.47991e-08
1.49175e-06
-4.846e-08
1.49467e-06
1.68779e-08
1.49185e-06
-3.32556e-08
1.49443e-06
1.02713e-08
1.49162e-06
-2.10177e-08
1.49369e-06
4.57862e-09
1.49092e-06
-1.12826e-08
1.49221e-06
6.06539e-10
1.48964e-06
-3.2284e-09
1.48978e-06
3.56459e-10
1.48678e-06
6.38589e-09
1.48451e-06
1.54519e-08
1.48335e-06
3.80152e-08
6.42906e-08
1.52968e-06
1.54345e-06
-3.22318e-07
1.55023e-06
2.41882e-07
1.54788e-06
-2.53875e-07
1.55378e-06
1.92876e-07
1.55083e-06
-2.13627e-07
1.55618e-06
1.43277e-07
1.55322e-06
-1.65167e-07
1.55794e-06
1.10525e-07
1.5549e-06
-1.24949e-07
1.55892e-06
8.04102e-08
1.55583e-06
-9.6713e-08
1.55918e-06
5.31407e-08
1.5561e-06
-7.85484e-08
1.55916e-06
3.35475e-08
1.55624e-06
-6.22631e-08
1.55927e-06
2.17677e-08
1.55648e-06
-4.56737e-08
1.5594e-06
1.39543e-08
1.55666e-06
-3.05142e-08
1.55928e-06
7.6494e-09
1.55654e-06
-1.82737e-08
1.5586e-06
2.52098e-09
1.55596e-06
-8.64471e-09
1.55707e-06
-5.04714e-10
1.55489e-06
-1.04638e-09
1.55414e-06
1.10505e-09
1.55289e-06
7.63486e-09
1.5479e-06
2.0443e-08
1.54357e-06
4.23493e-08
9.52652e-08
1.51259e-06
1.6164e-06
-3.18585e-07
1.62219e-06
2.36091e-07
1.61927e-06
-2.50954e-07
1.62435e-06
1.87788e-07
1.62111e-06
-2.1038e-07
1.62584e-06
1.38545e-07
1.62279e-06
-1.62121e-07
1.62709e-06
1.06222e-07
1.62406e-06
-1.21911e-07
1.62784e-06
7.66228e-08
1.62475e-06
-9.36223e-08
1.62802e-06
4.98752e-08
1.62489e-06
-7.54165e-08
1.62798e-06
3.04596e-08
1.62495e-06
-5.92423e-08
1.62807e-06
1.86541e-08
1.62518e-06
-4.2784e-08
1.62819e-06
1.09406e-08
1.62539e-06
-2.77109e-08
1.62805e-06
4.99031e-09
1.62534e-06
-1.55642e-08
1.62731e-06
5.47056e-10
1.62484e-06
-6.16917e-09
1.62567e-06
-1.33797e-09
1.62384e-06
7.85834e-10
1.62242e-06
2.52164e-09
1.6219e-06
8.16055e-09
1.6167e-06
2.56435e-08
1.61186e-06
4.7182e-08
1.31915e-07
1.57521e-06
1.69318e-06
-3.14188e-07
1.69825e-06
2.31017e-07
1.69482e-06
-2.47527e-07
1.69939e-06
1.83219e-07
1.69583e-06
-2.06817e-07
1.70023e-06
1.34147e-07
1.69694e-06
-1.58831e-07
1.70109e-06
1.02071e-07
1.69785e-06
-1.18668e-07
1.70164e-06
7.28303e-08
1.69835e-06
-9.03302e-08
1.70173e-06
4.64926e-08
1.69838e-06
-7.20636e-08
1.70161e-06
2.72281e-08
1.69836e-06
-5.59918e-08
1.70158e-06
1.54266e-08
1.69851e-06
-3.97051e-08
1.70158e-06
7.87025e-09
1.69868e-06
-2.48107e-08
1.70131e-06
2.35846e-09
1.69861e-06
-1.28692e-08
1.70049e-06
-1.33045e-09
1.69803e-06
-3.71329e-09
1.69903e-06
-2.33076e-09
1.69617e-06
3.64751e-09
1.69685e-06
1.83699e-09
1.69159e-06
1.34158e-08
1.69602e-06
2.12135e-08
1.69703e-06
4.61744e-08
8.25236e-08
1.74642e-06
1.77383e-06
-3.09291e-07
1.77862e-06
2.26224e-07
1.77466e-06
-2.43567e-07
1.77909e-06
1.78786e-07
1.77512e-06
-2.02848e-07
1.77949e-06
1.29775e-07
1.77582e-06
-1.55154e-07
1.78005e-06
9.78409e-08
1.77645e-06
-1.15073e-07
1.78041e-06
6.88709e-08
1.77681e-06
-8.67248e-08
1.78041e-06
4.28918e-08
1.77676e-06
-6.84205e-08
1.78018e-06
2.38138e-08
1.77667e-06
-5.24792e-08
1.77999e-06
1.21055e-08
1.77672e-06
-3.64407e-08
1.77978e-06
4.81595e-09
1.77683e-06
-2.18671e-08
1.77931e-06
-1.15497e-10
1.77676e-06
-1.03195e-08
1.77832e-06
-2.8943e-09
1.77616e-06
-1.55686e-09
1.7767e-06
-2.87124e-09
1.77412e-06
6.2351e-09
1.77462e-06
1.33038e-09
1.76848e-06
1.95566e-08
1.77482e-06
1.48795e-08
1.77641e-06
4.45829e-08
2.67802e-08
1.83215e-06
1.85842e-06
-3.03958e-07
1.86331e-06
2.2133e-07
1.85876e-06
-2.39022e-07
1.86336e-06
1.7419e-07
1.85891e-06
-1.98401e-07
1.86349e-06
1.25194e-07
1.85935e-06
-1.51011e-07
1.86382e-06
9.33716e-08
1.8598e-06
-1.11057e-07
1.86403e-06
6.46435e-08
1.86007e-06
-8.27632e-08
1.86394e-06
3.90218e-08
1.86e-06
-6.44787e-08
1.8636e-06
2.02093e-08
1.85985e-06
-4.87303e-08
1.86323e-06
8.7263e-09
1.85984e-06
-3.30503e-08
1.8628e-06
1.85604e-09
1.85991e-06
-1.89731e-08
1.86211e-06
-2.31751e-09
1.85983e-06
-8.03465e-09
1.86092e-06
-3.98733e-09
1.85927e-06
8.70839e-11
1.85893e-06
-2.52696e-09
1.85774e-06
7.42743e-09
1.85563e-06
3.44176e-09
1.85391e-06
2.12776e-08
1.84884e-06
1.99486e-08
1.83902e-06
5.44032e-08
6.2703e-08
1.80309e-06
1.94708e-06
-2.98202e-07
1.95235e-06
2.16068e-07
1.94717e-06
-2.33845e-07
1.95212e-06
1.69235e-07
1.94714e-06
-1.93421e-07
1.95209e-06
1.20244e-07
1.94744e-06
-1.4636e-07
1.95226e-06
8.85544e-08
1.94779e-06
-1.0659e-07
1.95235e-06
6.00838e-08
1.94803e-06
-7.84361e-08
1.95219e-06
3.48603e-08
1.94797e-06
-6.02601e-08
1.95175e-06
1.64279e-08
1.94782e-06
-4.48049e-08
1.95121e-06
5.33873e-09
1.94779e-06
-2.96311e-08
1.95057e-06
-9.19058e-10
1.94785e-06
-1.62529e-08
1.94967e-06
-4.13858e-09
1.94776e-06
-6.12817e-09
1.9483e-06
-4.52262e-09
1.94722e-06
1.16219e-09
1.94607e-06
-1.37663e-09
1.94574e-06
7.76338e-09
1.94211e-06
7.06597e-09
1.94306e-06
2.03274e-08
1.93186e-06
3.11466e-08
1.92722e-06
5.90458e-08
9.39692e-08
1.89596e-06
2.04e-06
-2.92014e-07
2.0458e-06
2.10265e-07
2.03995e-06
-2.27996e-07
2.04539e-06
1.63802e-07
2.03983e-06
-1.87864e-07
2.04525e-06
1.14822e-07
2.04007e-06
-1.41179e-07
2.04531e-06
8.33182e-08
2.04038e-06
-1.01663e-07
2.04531e-06
5.51584e-08
2.04063e-06
-7.37551e-08
2.04507e-06
3.04146e-08
2.04062e-06
-5.58102e-08
2.04454e-06
1.25126e-08
2.04052e-06
-4.0792e-08
2.04384e-06
2.02282e-09
2.04053e-06
-2.63166e-08
2.043e-06
-3.39049e-09
2.0406e-06
-1.38582e-08
2.04193e-06
-5.46412e-09
2.04051e-06
-4.70775e-09
2.04045e-06
-4.46719e-09
2.03982e-06
1.79362e-09
2.03835e-06
9.59074e-11
2.03764e-06
8.46983e-09
2.03447e-06
1.0241e-08
2.03337e-06
2.1424e-08
2.0263e-06
3.82183e-08
2.01479e-06
7.05592e-08
1.27242e-07
1.98151e-06
2.13737e-06
-2.85381e-07
2.14383e-06
2.03808e-07
2.13726e-06
-2.21431e-07
2.14325e-06
1.57809e-07
2.13708e-06
-1.81689e-07
2.14304e-06
1.0886e-07
2.13732e-06
-1.35456e-07
2.14301e-06
7.76212e-08
2.13763e-06
-9.628e-08
2.14293e-06
4.98616e-08
2.13792e-06
-6.87477e-08
2.14261e-06
2.57192e-08
2.138e-06
-5.11919e-08
2.14198e-06
8.53207e-09
2.13798e-06
-3.67958e-08
2.14113e-06
-1.12539e-09
2.13805e-06
-2.32329e-08
2.14012e-06
-5.46525e-09
2.13816e-06
-1.18934e-08
2.13894e-06
-6.25001e-09
2.13799e-06
-3.7526e-09
2.13758e-06
-4.06445e-09
2.13677e-06
2.61105e-09
2.13595e-06
9.08044e-10
2.13379e-06
1.06352e-08
2.13194e-06
1.20939e-08
2.12631e-06
2.70485e-08
2.13227e-06
3.22588e-08
2.15591e-06
4.6918e-08
5.23329e-08
2.23082e-06
2.23939e-06
-2.78286e-07
2.24659e-06
1.96613e-07
2.23926e-06
-2.14104e-07
2.24587e-06
1.512e-07
2.23904e-06
-1.7486e-07
2.24559e-06
1.02316e-07
2.23931e-06
-1.29182e-07
2.24549e-06
7.14467e-08
2.23967e-06
-9.04613e-08
2.24531e-06
4.42171e-08
2.24003e-06
-6.34652e-08
2.24491e-06
2.08437e-08
2.24021e-06
-4.64997e-08
2.24415e-06
4.59879e-09
2.24031e-06
-3.29634e-08
2.24314e-06
-3.95087e-09
2.24047e-06
-2.05665e-08
2.24199e-06
-6.97853e-09
2.24063e-06
-1.05348e-08
2.24072e-06
-6.33719e-09
2.24043e-06
-3.46896e-09
2.2392e-06
-2.83303e-09
2.23937e-06
2.44534e-09
2.23709e-06
3.1832e-09
2.23652e-06
1.12037e-08
2.23312e-06
1.54967e-08
2.23073e-06
2.9437e-08
2.22368e-06
3.93071e-08
2.20764e-06
6.29626e-08
8.31942e-08
2.17678e-06
2.3463e-06
-2.7071e-07
2.35429e-06
1.88618e-07
2.34616e-06
-2.05972e-07
2.35343e-06
1.43932e-07
2.34592e-06
-1.67346e-07
2.35307e-06
9.51651e-08
2.34625e-06
-1.22362e-07
2.35289e-06
6.47994e-08
2.34667e-06
-8.42413e-08
2.35262e-06
3.82722e-08
2.34713e-06
-5.79793e-08
2.35209e-06
1.58823e-08
2.34744e-06
-4.18494e-08
2.3512e-06
8.46923e-10
2.34768e-06
-2.94515e-08
2.35003e-06
-6.2966e-09
2.34794e-06
-1.84802e-08
2.34877e-06
-7.81005e-09
2.34811e-06
-9.8737e-09
2.34746e-06
-5.68223e-09
2.34788e-06
-3.89065e-09
2.34569e-06
-6.41379e-10
2.34713e-06
1.00722e-09
2.34294e-06
7.37011e-09
2.34471e-06
9.43447e-09
2.33883e-06
2.1378e-08
2.33973e-06
2.85362e-08
2.32491e-06
5.41278e-08
2.31536e-06
7.25092e-08
1.07441e-07
2.29111e-06
2.45832e-06
-2.62639e-07
2.46716e-06
1.79778e-07
2.45819e-06
-1.96998e-07
2.46614e-06
1.35983e-07
2.45793e-06
-1.59134e-07
2.46568e-06
8.74095e-08
2.45834e-06
-1.15019e-07
2.46542e-06
5.77163e-08
2.45887e-06
-7.76854e-08
2.46503e-06
3.21106e-08
2.45945e-06
-5.23962e-08
2.46437e-06
1.09612e-08
2.4599e-06
-3.73788e-08
2.46333e-06
-2.58636e-09
2.46026e-06
-2.63816e-08
2.46205e-06
-8.08639e-09
2.46057e-06
-1.69967e-08
2.4608e-06
-8.04871e-09
2.46058e-06
-9.64577e-09
2.45971e-06
-4.81663e-09
2.45992e-06
-4.09657e-09
2.45852e-06
7.57698e-10
2.45831e-06
1.21051e-09
2.45621e-06
9.47837e-09
2.45479e-06
1.0851e-08
2.45165e-06
2.45174e-08
2.44912e-06
3.10643e-08
2.44099e-06
6.22597e-08
2.42281e-06
9.0687e-08
1.41646e-07
2.38861e-06
2.57572e-06
-2.54066e-07
2.58543e-06
1.70065e-07
2.5756e-06
-1.87163e-07
2.58424e-06
1.27346e-07
2.57533e-06
-1.50231e-07
2.58367e-06
7.90751e-08
2.57585e-06
-1.07202e-07
2.5833e-06
5.02621e-08
2.5765e-06
-7.08859e-08
2.58277e-06
2.58465e-08
2.57722e-06
-4.68526e-08
2.58195e-06
6.23429e-09
2.57782e-06
-3.32442e-08
2.58079e-06
-5.555e-09
2.57827e-06
-2.38697e-08
2.57946e-06
-9.26959e-09
2.57855e-06
-1.60848e-08
2.57833e-06
-7.83786e-09
2.57829e-06
-9.59696e-09
2.5776e-06
-4.13265e-09
2.57697e-06
-3.46718e-09
2.57719e-06
5.42531e-10
2.5744e-06
3.99728e-09
2.57551e-06
8.36806e-09
2.57012e-06
1.62406e-08
2.5694e-06
2.52346e-08
2.56153e-06
3.89336e-08
2.57855e-06
4.52447e-08
2.61435e-06
5.48849e-08
5.47755e-08
2.70122e-06
2.69875e-06
-2.44987e-07
2.70936e-06
1.59459e-07
2.69865e-06
-1.76459e-07
2.70797e-06
1.18031e-07
2.6984e-06
-1.40661e-07
2.70726e-06
7.02105e-08
2.69904e-06
-9.89844e-08
2.70677e-06
4.25339e-08
2.69986e-06
-6.39735e-08
2.70607e-06
1.96409e-08
2.70075e-06
-4.15364e-08
2.70508e-06
1.90758e-09
2.7015e-06
-2.96652e-08
2.70378e-06
-7.8414e-09
2.70202e-06
-2.21026e-08
2.70245e-06
-9.70522e-09
2.70224e-06
-1.58732e-08
2.70137e-06
-6.96369e-09
2.70193e-06
-1.01651e-08
2.70046e-06
-2.66219e-09
2.701e-06
-4.0077e-09
2.69925e-06
2.29617e-09
2.69902e-06
4.22362e-09
2.69677e-06
1.06195e-08
2.69493e-06
1.80842e-08
2.69205e-06
2.8118e-08
2.68855e-06
4.24311e-08
2.6795e-06
5.42986e-08
2.65834e-06
7.60378e-08
8.96242e-08
2.62349e-06
2.82768e-06
-2.35397e-07
2.83919e-06
1.47948e-07
2.82762e-06
-1.64885e-07
2.83759e-06
1.08055e-07
2.82739e-06
-1.30458e-07
2.83672e-06
6.08742e-08
2.82819e-06
-9.0445e-08
2.83609e-06
3.46325e-08
2.82919e-06
-5.70746e-08
2.8352e-06
1.36242e-08
2.83021e-06
-3.65408e-08
2.83409e-06
-1.96943e-09
2.83109e-06
-2.66653e-08
2.83271e-06
-9.46257e-09
2.83163e-06
-2.10207e-08
2.83143e-06
-9.50563e-09
2.83173e-06
-1.618e-08
2.83041e-06
-5.63839e-09
2.83148e-06
-1.12353e-08
2.82909e-06
-2.7353e-10
2.83111e-06
-6.02679e-09
2.82681e-06
6.59015e-09
2.83013e-06
9.1153e-10
2.82367e-06
1.70787e-08
2.82728e-06
1.44748e-08
2.81962e-06
3.57791e-08
2.82071e-06
4.13372e-08
2.80012e-06
7.48853e-08
2.7907e-06
8.54645e-08
1.1439e-07
2.76593e-06
2.9628e-06
-2.25305e-07
2.9752e-06
1.35553e-07
2.96279e-06
-1.5248e-07
2.97337e-06
9.74832e-08
2.96261e-06
-1.19703e-07
2.9723e-06
5.11849e-08
2.96359e-06
-8.1731e-08
2.97147e-06
2.67436e-08
2.96482e-06
-5.04228e-08
2.97035e-06
8.09839e-09
2.96611e-06
-3.23029e-08
2.96899e-06
-4.85355e-09
2.96708e-06
-2.47509e-08
2.96768e-06
-1.00615e-08
2.96744e-06
-2.07821e-08
2.96668e-06
-8.74706e-09
2.96719e-06
-1.66911e-08
2.96603e-06
-4.47353e-09
2.96662e-06
-1.18251e-08
2.96516e-06
1.18426e-09
2.9654e-06
-6.26181e-09
2.96357e-06
8.41593e-09
2.96342e-06
1.05658e-09
2.9603e-06
2.01999e-08
2.9587e-06
1.6078e-08
2.9562e-06
3.82824e-08
2.95349e-06
4.40392e-08
2.9425e-06
8.58846e-08
2.91702e-06
1.10938e-07
1.52319e-07
2.87909e-06
3.10443e-06
-2.14733e-07
3.11768e-06
1.22312e-07
3.1045e-06
-1.39308e-07
3.11559e-06
8.63955e-08
3.10438e-06
-1.0849e-07
3.1143e-06
4.12622e-08
3.10554e-06
-7.29702e-08
3.11329e-06
1.8993e-08
3.10698e-06
-4.41092e-08
3.11202e-06
3.05138e-09
3.1083e-06
-2.85796e-08
3.11075e-06
-7.30429e-09
3.10905e-06
-2.30522e-08
3.10987e-06
-1.08813e-08
3.10872e-06
-1.96302e-08
3.10972e-06
-9.7461e-09
3.10747e-06
-1.44445e-08
3.11011e-06
-7.11328e-09
3.10547e-06
-7.18461e-09
3.11066e-06
-4.00129e-09
3.1028e-06
1.5992e-09
3.11048e-06
7.30054e-10
3.10005e-06
1.149e-08
3.1081e-06
1.21528e-08
3.09586e-06
2.83185e-08
3.09932e-06
3.48136e-08
3.08878e-06
5.45886e-08
3.12163e-06
5.30308e-08
3.16774e-06
6.4825e-08
6.01644e-08
3.2599e-06
3.25289e-06
-2.03717e-07
3.26692e-06
1.08287e-07
3.25309e-06
-1.25475e-07
3.26457e-06
7.49131e-08
3.25304e-06
-9.69602e-08
3.26301e-06
3.12871e-08
3.25441e-06
-6.43689e-08
3.26178e-06
1.1626e-08
3.25612e-06
-3.84473e-08
3.26026e-06
-1.08646e-09
3.25766e-06
-2.59866e-08
3.25885e-06
-8.4898e-09
3.25853e-06
-2.27294e-08
3.25782e-06
-1.01768e-08
3.25849e-06
-2.02982e-08
3.25707e-06
-8.33002e-09
3.25825e-06
-1.56175e-08
3.25604e-06
-4.90903e-09
3.25813e-06
-9.27626e-09
3.25432e-06
-1.85692e-10
3.25773e-06
-1.81637e-09
3.25176e-06
6.70717e-09
3.25555e-06
7.69235e-09
3.24846e-06
1.92509e-08
3.2524e-06
2.43776e-08
3.24622e-06
4.09876e-08
3.24773e-06
5.30805e-08
3.22702e-06
7.37442e-08
3.20346e-06
8.83794e-08
1.02006e-07
3.16162e-06
3.4085e-06
-1.92287e-07
3.42323e-06
9.35559e-08
3.40887e-06
-1.11113e-07
3.4206e-06
6.31848e-08
3.40891e-06
-8.52756e-08
3.41873e-06
2.147e-08
3.41052e-06
-5.61593e-08
3.41724e-06
4.91159e-09
3.41257e-06
-3.37788e-08
3.4154e-06
-3.91351e-09
3.41433e-06
-2.49223e-08
3.41392e-06
-8.07796e-09
3.41513e-06
-2.39434e-08
3.41294e-06
-7.98017e-09
3.41512e-06
-2.24802e-08
3.41205e-06
-5.25736e-09
3.41509e-06
-1.86631e-08
3.41084e-06
-6.54704e-10
3.41481e-06
-1.32528e-08
3.4092e-06
5.42459e-09
3.41433e-06
-6.9473e-09
3.40637e-06
1.46684e-08
3.41248e-06
1.58695e-09
3.40327e-06
2.84637e-08
3.40836e-06
1.92876e-08
3.40211e-06
4.72294e-08
3.40694e-06
4.82584e-08
3.38255e-06
9.81282e-08
3.35554e-06
1.15395e-07
1.46504e-07
3.31104e-06
3.57163e-06
-1.80509e-07
3.58694e-06
7.82486e-08
3.57224e-06
-9.64087e-08
3.58403e-06
5.13893e-08
3.57235e-06
-7.35899e-08
3.58187e-06
1.19476e-08
3.57404e-06
-4.83339e-08
3.58038e-06
-1.42915e-09
3.57592e-06
-2.93138e-08
3.57899e-06
-6.98813e-09
3.57695e-06
-2.28752e-08
3.57855e-06
-9.68722e-09
3.57654e-06
-2.1927e-08
3.5789e-06
-1.03418e-08
3.57496e-06
-1.85402e-08
3.57976e-06
-1.00566e-08
3.57262e-06
-1.15198e-08
3.58121e-06
-9.2467e-09
3.5697e-06
-1.74382e-09
3.58197e-06
-6.84522e-09
3.56667e-06
8.35375e-09
3.58228e-06
-9.41824e-10
3.56371e-06
2.01595e-08
3.58015e-06
1.20168e-08
3.55987e-06
3.95684e-08
3.57017e-06
3.69354e-08
3.55604e-06
6.23868e-08
3.60453e-06
4.96307e-08
3.65664e-06
6.32879e-08
5.85796e-08
3.74457e-06
3.74266e-06
-1.68463e-07
3.75838e-06
6.25294e-08
3.7436e-06
-8.16275e-08
3.7552e-06
3.97835e-08
3.74377e-06
-6.2156e-08
3.75266e-06
3.06204e-09
3.74564e-06
-4.13138e-08
3.751e-06
-6.78952e-09
3.74769e-06
-2.60126e-08
3.74942e-06
-8.71411e-09
3.74913e-06
-2.25895e-08
3.74828e-06
-8.83225e-09
3.74994e-06
-2.35835e-08
3.7468e-06
-7.20378e-09
3.75064e-06
-2.23854e-08
3.74502e-06
-4.43559e-09
3.75118e-06
-1.76733e-08
3.74321e-06
-1.28527e-09
3.75147e-06
-9.99567e-09
3.74171e-06
2.91107e-09
3.74997e-06
9.13361e-11
3.73933e-06
9.69858e-09
3.74691e-06
1.25796e-08
3.73734e-06
2.15917e-08
3.74522e-06
3.16825e-08
3.73839e-06
4.3765e-08
3.73816e-06
6.26243e-08
3.71486e-06
7.2922e-08
3.68444e-06
9.37122e-08
1.07801e-07
3.63522e-06
3.92195e-06
-1.56221e-07
3.93788e-06
4.6599e-08
3.92337e-06
-6.71158e-08
3.93445e-06
2.86983e-08
3.9236e-06
-5.13092e-08
3.93142e-06
-4.75861e-09
3.92549e-06
-3.53812e-08
3.92981e-06
-1.11104e-08
3.92741e-06
-2.36068e-08
3.92848e-06
-9.7893e-09
3.92875e-06
-2.2856e-08
3.92727e-06
-7.34967e-09
3.93e-06
-2.63159e-08
3.92513e-06
-2.34022e-09
3.93129e-06
-2.85429e-08
3.9226e-06
4.2521e-09
3.93282e-06
-2.78871e-08
3.91967e-06
1.18681e-08
3.93428e-06
-2.4606e-08
3.91631e-06
2.08736e-08
3.93491e-06
-1.85079e-08
3.91321e-06
3.13958e-08
3.93385e-06
-8.05765e-09
3.91168e-06
4.37682e-08
3.93417e-06
9.19083e-09
3.91582e-06
6.21088e-08
3.93671e-06
4.17337e-08
3.89098e-06
1.18655e-07
3.85841e-06
1.26284e-07
1.55588e-07
3.81062e-06
4.10991e-06
-1.43885e-07
4.12583e-06
3.0679e-08
4.11192e-06
-5.32015e-08
4.1223e-06
1.8319e-08
4.1119e-06
-4.0907e-08
4.11921e-06
-1.20729e-08
4.11319e-06
-2.93574e-08
4.11863e-06
-1.6552e-08
4.11353e-06
-1.85057e-08
4.11939e-06
-1.56478e-08
4.11248e-06
-1.59486e-08
4.12079e-06
-1.56563e-08
4.11042e-06
-1.59485e-08
4.12234e-06
-1.42624e-08
4.10803e-06
-1.42312e-08
4.12342e-06
-1.11408e-08
4.10601e-06
-1.04723e-08
4.12389e-06
-6.01661e-09
4.10434e-06
-5.05065e-09
4.12353e-06
1.68247e-09
4.10295e-06
2.07039e-09
4.12124e-06
1.3108e-08
4.101e-06
1.21819e-08
4.11706e-06
2.77071e-08
4.0984e-06
2.78488e-08
4.11651e-06
4.39998e-08
4.10801e-06
5.02315e-08
4.15877e-06
6.78942e-08
4.21087e-06
7.4191e-08
8.54791e-08
4.28097e-06
4.30703e-06
-1.31616e-07
4.32257e-06
1.51421e-08
4.31016e-06
-4.0787e-08
4.31889e-06
9.58688e-09
4.30988e-06
-3.18984e-08
4.31518e-06
-1.73754e-08
4.31093e-06
-2.51042e-08
4.31468e-06
-2.03082e-08
4.31113e-06
-1.49541e-08
4.31569e-06
-2.02015e-08
4.31016e-06
-1.0423e-08
4.31703e-06
-2.25261e-08
4.30822e-06
-7.13399e-09
4.31865e-06
-2.46977e-08
4.30555e-06
-1.13303e-09
4.31997e-06
-2.55539e-08
4.3033e-06
6.19367e-09
4.32075e-06
-2.34636e-08
4.30131e-06
1.43871e-08
4.32055e-06
-1.75554e-08
4.29933e-06
2.32907e-08
4.31953e-06
-7.09358e-09
4.29703e-06
3.46767e-08
4.31534e-06
9.39727e-09
4.29344e-06
4.97475e-08
4.31272e-06
2.47245e-08
4.311e-06
5.19559e-08
4.36191e-06
1.69819e-08
4.41023e-06
2.58658e-08
4.52376e-09
4.49119e-06
4.51377e-06
-1.19613e-07
4.52839e-06
5.22737e-10
4.5192e-06
-3.15982e-08
4.52486e-06
3.9323e-09
4.51756e-06
-2.46066e-08
4.52045e-06
-2.02629e-08
4.51832e-06
-2.29718e-08
4.5192e-06
-2.11885e-08
4.51955e-06
-1.53001e-08
4.51895e-06
-1.961e-08
4.52097e-06
-1.2436e-08
4.5179e-06
-1.94606e-08
4.52181e-06
-1.10464e-08
4.51633e-06
-1.92179e-08
4.52236e-06
-7.15516e-09
4.51494e-06
-1.8134e-08
4.52249e-06
-1.35525e-09
4.51368e-06
-1.46558e-08
4.52183e-06
6.23957e-09
4.51195e-06
-7.6801e-09
4.51928e-06
1.59583e-08
4.50851e-06
3.6778e-09
4.51337e-06
2.98168e-08
4.50476e-06
1.80096e-08
4.51253e-06
4.19763e-08
4.50533e-06
3.19219e-08
4.509e-06
4.82898e-08
4.48049e-06
4.54918e-08
4.44284e-06
6.35101e-08
6.21748e-08
4.38519e-06
4.73035e-06
-1.07845e-07
4.74438e-06
-1.35097e-08
4.73616e-06
-2.33806e-08
4.74151e-06
-1.41694e-09
4.73449e-06
-1.75865e-08
4.7364e-06
-2.21753e-08
4.73494e-06
-2.15137e-08
4.73454e-06
-2.07814e-08
4.73723e-06
-1.79891e-08
4.73348e-06
-1.58595e-08
4.73946e-06
-1.84157e-08
4.73164e-06
-1.16496e-08
4.74094e-06
-2.03439e-08
4.72931e-06
-7.59054e-09
4.74226e-06
-2.01013e-08
4.72717e-06
-3.04615e-09
4.74298e-06
-1.71638e-08
4.72546e-06
2.86577e-09
4.74279e-06
-1.10858e-08
4.72423e-06
1.08711e-08
4.74143e-06
-1.23451e-09
4.72306e-06
2.20398e-08
4.74024e-06
1.2638e-08
4.72325e-06
3.50048e-08
4.73712e-06
2.81068e-08
4.7149e-06
5.41428e-08
4.71202e-06
5.1167e-08
4.68719e-06
7.03169e-08
4.68075e-06
6.99596e-08
9.45876e-08
4.64833e-06
4.9577e-06
-9.67479e-08
4.96922e-06
-2.50248e-08
4.96689e-06
-2.10532e-08
4.96575e-06
-2.76826e-10
4.96563e-06
-1.74641e-08
4.96071e-06
-1.72616e-08
4.9635e-06
-2.43004e-08
4.96007e-06
-1.73542e-08
4.96444e-06
-2.23593e-08
4.96033e-06
-1.17515e-08
4.9653e-06
-2.33799e-08
4.96004e-06
-6.39163e-09
4.96536e-06
-2.56631e-08
4.95927e-06
-1.50119e-09
4.96484e-06
-2.5671e-08
4.9589e-06
2.89025e-09
4.96397e-06
-2.22331e-08
4.95786e-06
8.9809e-09
4.96171e-06
-1.49408e-08
4.95437e-06
1.82117e-08
4.95635e-06
-3.21484e-09
4.94978e-06
2.86122e-08
4.95123e-06
1.11902e-08
4.94753e-06
3.87071e-08
4.94798e-06
2.76479e-08
4.9498e-06
5.23223e-08
4.94769e-06
5.32822e-08
4.9192e-06
9.88072e-08
4.87571e-06
1.13448e-07
1.3114e-07
4.83916e-06
5.19563e-06
-8.60604e-08
5.20672e-06
-3.61118e-08
5.20241e-06
-1.67438e-08
5.20659e-06
-4.4615e-09
5.19771e-06
-8.5833e-09
5.20442e-06
-2.3967e-08
5.19489e-06
-1.47704e-08
5.20582e-06
-2.82905e-08
5.19329e-06
-9.83028e-09
5.20811e-06
-2.65716e-08
5.19151e-06
-6.77579e-09
5.2099e-06
-2.47806e-08
5.18926e-06
-5.02109e-09
5.21124e-06
-2.34816e-08
5.18741e-06
-1.84681e-09
5.21138e-06
-2.10821e-08
5.18676e-06
2.39538e-09
5.21064e-06
-1.49072e-08
5.18667e-06
9.03797e-09
5.20952e-06
-4.63983e-09
5.18702e-06
1.92853e-08
5.20614e-06
9.48527e-09
5.18279e-06
3.45397e-08
5.19346e-06
2.80387e-08
5.17325e-06
4.7858e-08
5.18497e-06
4.0607e-08
5.19083e-06
4.74192e-08
5.26303e-06
2.66117e-08
5.35004e-06
2.64384e-08
2.7166e-08
5.45401e-06
5.4455e-06
-7.6376e-08
5.45188e-06
-4.24883e-08
5.45579e-06
-2.06511e-08
5.44965e-06
1.67899e-09
5.45516e-06
-1.40942e-08
5.44551e-06
-1.43204e-08
5.45199e-06
-2.12485e-08
5.44521e-06
-2.15076e-08
5.45164e-06
-1.62625e-08
5.44656e-06
-2.14895e-08
5.45149e-06
-1.17059e-08
5.44744e-06
-2.0729e-08
5.45046e-06
-8.043e-09
5.4468e-06
-1.98192e-08
5.44871e-06
-3.75678e-09
5.4446e-06
-1.69786e-08
5.44558e-06
1.41923e-09
5.44221e-06
-1.15356e-08
5.44262e-06
8.62609e-09
5.43905e-06
-1.0714e-09
5.43985e-06
1.84884e-08
5.43568e-06
1.36527e-08
5.43608e-06
3.41352e-08
5.43406e-06
3.0061e-08
5.43535e-06
4.6572e-08
5.43464e-06
4.13185e-08
5.42401e-06
5.80407e-08
5.39775e-06
5.28808e-08
5.35923e-06
6.49504e-08
6.50877e-08
5.32131e-06
5.70685e-06
-6.72699e-08
5.71254e-06
-4.81749e-08
5.71466e-06
-2.27703e-08
5.71493e-06
1.4111e-09
5.7143e-06
-1.34671e-08
5.70983e-06
-9.85605e-09
5.71026e-06
-2.16693e-08
5.70662e-06
-1.7873e-08
5.71137e-06
-2.10104e-08
5.70721e-06
-1.73308e-08
5.71312e-06
-1.76211e-08
5.70681e-06
-1.44092e-08
5.71333e-06
-1.45661e-08
5.70551e-06
-1.20002e-08
5.71306e-06
-1.13122e-08
5.7046e-06
-8.51558e-09
5.71265e-06
-6.62795e-09
5.70259e-06
-1.48005e-09
5.70911e-06
2.10546e-09
5.69932e-06
8.72174e-09
5.70337e-06
1.44414e-08
5.69612e-06
2.08977e-08
5.70116e-06
2.90933e-08
5.69409e-06
3.71344e-08
5.6944e-06
4.62615e-08
5.68194e-06
5.37755e-08
5.67705e-06
6.29342e-08
5.65991e-06
7.0022e-08
5.64497e-06
7.98926e-08
8.7974e-08
5.62208e-06
5.98099e-06
-5.9065e-08
5.98177e-06
-4.89523e-08
5.98869e-06
-2.96925e-08
5.98713e-06
2.97236e-09
5.98956e-06
-1.58978e-08
5.98103e-06
-1.32674e-09
5.98688e-06
-2.75266e-08
5.97817e-06
-9.15951e-09
5.98778e-06
-3.06213e-08
5.97858e-06
-8.12495e-09
5.98828e-06
-2.7329e-08
5.97893e-06
-5.05111e-09
5.98734e-06
-2.29824e-08
5.97884e-06
-3.49911e-09
5.98462e-06
-1.70896e-08
5.97692e-06
-8.11846e-10
5.97945e-06
-9.1653e-09
5.97344e-06
4.52801e-09
5.97594e-06
-3.85589e-10
5.97112e-06
1.35421e-08
5.97385e-06
1.17058e-08
5.96942e-06
2.53316e-08
5.97296e-06
2.55493e-08
5.96796e-06
4.21364e-08
5.96746e-06
4.6764e-08
5.95555e-06
6.56864e-08
5.94942e-06
6.90599e-08
5.93249e-06
8.69543e-08
5.91981e-06
9.25747e-08
1.02943e-07
5.90484e-06
6.2682e-06
-5.17723e-08
6.2653e-06
-4.60564e-08
6.2758e-06
-4.01946e-08
6.27055e-06
8.22699e-09
6.27802e-06
-2.33732e-08
6.26574e-06
1.09517e-08
6.27491e-06
-3.66919e-08
6.26389e-06
1.85895e-09
6.27515e-06
-4.18772e-08
6.26438e-06
2.64457e-09
6.27533e-06
-3.82804e-08
6.26471e-06
5.57024e-09
6.27447e-06
-3.2745e-08
6.26427e-06
6.69691e-09
6.27292e-06
-2.5737e-08
6.2624e-06
9.71406e-09
6.26954e-06
-1.63094e-08
6.25884e-06
1.52306e-08
6.26411e-06
-5.65783e-09
6.25655e-06
2.11039e-08
6.26015e-06
8.1017e-09
6.25374e-06
3.174e-08
6.25582e-06
2.34687e-08
6.2535e-06
4.44619e-08
6.26104e-06
3.92244e-08
6.25699e-06
6.973e-08
6.24809e-06
7.79664e-08
6.21335e-06
1.21692e-07
6.16469e-06
1.41234e-07
1.29635e-07
6.138e-06
6.56771e-06
-4.4016e-08
6.57678e-06
-5.51223e-08
6.56136e-06
-2.47726e-08
6.58055e-06
-1.0965e-08
6.56061e-06
-3.43061e-09
6.58138e-06
-9.82204e-09
6.55908e-06
-1.43927e-08
6.58105e-06
-2.01092e-08
6.55905e-06
-1.98763e-08
6.58125e-06
-1.95618e-08
6.55916e-06
-1.61823e-08
6.58076e-06
-1.60292e-08
6.55927e-06
-1.12546e-08
6.57952e-06
-1.35619e-08
6.55972e-06
-5.93066e-09
6.57819e-06
-8.7609e-09
6.56037e-06
1.51397e-09
6.57549e-06
1.12501e-10
6.55889e-06
1.09381e-08
6.5682e-06
1.18e-08
6.55527e-06
2.10279e-08
6.56199e-06
2.50185e-08
6.54873e-06
3.67292e-08
6.55098e-06
4.22102e-08
6.54225e-06
4.79587e-08
6.56985e-06
4.21267e-08
6.6042e-06
4.36147e-08
6.68582e-06
4.00767e-08
6.78601e-06
4.10437e-08
5.87649e-08
6.85688e-06
6.88452e-06
-3.87435e-08
6.87761e-06
-4.82146e-08
6.88994e-06
-3.70989e-08
6.88158e-06
-2.6064e-09
6.89326e-06
-1.51167e-08
6.8819e-06
1.54298e-09
6.88904e-06
-2.15345e-08
6.8807e-06
-1.17655e-08
6.88704e-06
-2.62157e-08
6.88038e-06
-1.29004e-08
6.88708e-06
-2.28875e-08
6.88039e-06
-9.34254e-09
6.88627e-06
-1.71356e-08
6.87811e-06
-5.39524e-09
6.88264e-06
-1.04659e-08
6.87387e-06
8.8861e-12
6.87824e-06
-2.84849e-09
6.87105e-06
7.30111e-09
6.87443e-06
7.55053e-09
6.86927e-06
1.69667e-08
6.87238e-06
1.7912e-08
6.87265e-06
2.47491e-08
6.88612e-06
2.32636e-08
6.89862e-06
2.97057e-08
6.91e-06
3.65873e-08
6.8966e-06
5.55186e-08
6.86948e-06
7.07384e-08
6.81715e-06
9.24054e-08
6.75113e-06
1.07063e-07
8.1995e-08
6.7279e-06
7.21243e-06
-3.20356e-08
7.22408e-06
-5.98704e-08
7.20165e-06
-1.46632e-08
7.22642e-06
-2.73787e-08
7.20187e-06
9.43677e-09
7.22775e-06
-2.43369e-08
7.20133e-06
4.87816e-09
7.22691e-06
-3.73451e-08
7.20258e-06
-1.87996e-09
7.2253e-06
-3.56225e-08
7.2038e-06
-1.38738e-09
7.22345e-06
-2.89893e-08
7.20467e-06
1.63933e-09
7.22205e-06
-2.27689e-08
7.20615e-06
5.42859e-09
7.21804e-06
-1.18831e-08
7.20297e-06
1.22268e-08
7.21106e-06
-7.87418e-10
7.19882e-06
1.97845e-08
7.20553e-06
1.026e-08
7.1974e-06
2.60433e-08
7.20235e-06
1.97943e-08
7.19027e-06
3.5351e-08
7.19076e-06
2.92147e-08
7.19089e-06
3.64496e-08
7.22242e-06
2.39942e-08
7.26943e-06
2.37296e-08
7.35305e-06
8.77934e-09
7.45663e-06
3.48232e-09