/*--------------------------------*- C++ -*----------------------------------*\
| =========                 |                                                 |
| \\      /  F ield         | OpenFOAM: The Open Source CFD Toolbox           |
|  \\    /   O peration     | Version:  v2006                                 |
|   \\  /    A nd           | Website:  www.openfoam.com                      |
|    \\/     M anipulation  |                                                 |
\*---------------------------------------------------------------------------*/
FoamFile
{
    version     2.0;
    format      ascii;
    class       volVectorField;
    location    "1.1";
    object      U;
}
// * * * * * * * * * * * * * * * * * * * * * * * * * * * * * * * * * * * * * //

dimensions      [0 1 -1 0 0 0 0];


internalField   nonuniform List<vector> 
26400
(
(0.909079 -0.00477314 0)
(1.09191 0.00433967 0)
(0.91296 -0.00416798 0)
(1.0914 0.00393695 0)
(0.919659 -0.00398049 0)
(1.09197 0.00334361 0)
(0.925061 -0.00350932 0)
(1.09252 0.00295745 0)
(0.929888 -0.00305743 0)
(1.09312 0.00250436 0)
(0.934236 -0.00274915 0)
(1.09373 0.00198282 0)
(0.937981 -0.00261234 0)
(1.09424 0.00157578 0)
(0.940899 -0.00244522 0)
(1.09471 0.00135287 0)
(0.942939 -0.00218056 0)
(1.0954 0.00120673 0)
(0.944082 -0.00188113 0)
(1.09646 0.00104788 0)
(0.944227 -0.00162212 0)
(1.09798 0.00084251 0)
(0.94312 -0.00139963 0)
(1.09999 0.000599212 0)
(0.940369 -0.00115188 0)
(1.10241 0.000330016 0)
(0.93544 -0.000670952 0)
(1.10476 2.47546e-05 0)
(0.926998 0.00111012 0)
(1.10594 0.000363745 0)
(0.915976 -0.00481431 0)
(1.08607 0.00434294 0)
(0.922354 -0.00423126 0)
(1.08554 0.00393213 0)
(0.930692 -0.00405731 0)
(1.08547 0.00334427 0)
(0.937464 -0.0035888 0)
(1.08498 0.00296069 0)
(0.943671 -0.0031398 0)
(1.08415 0.00250963 0)
(0.949529 -0.0028339 0)
(1.08294 0.00199052 0)
(0.955004 -0.00269525 0)
(1.08123 0.0015899 0)
(0.960076 -0.00252361 0)
(1.07892 0.0013738 0)
(0.964967 -0.00225516 0)
(1.07602 0.00123404 0)
(0.969951 -0.00195244 0)
(1.07231 0.0010838 0)
(0.975304 -0.00168827 0)
(1.06745 0.000895282 0)
(0.981278 -0.00145166 0)
(1.06089 0.000678291 0)
(0.98811 -0.00116146 0)
(1.05191 0.000425479 0)
(0.995972 -0.000546476 0)
(1.03926 0.000207101 0)
(1.00455 0.00201501 0)
(1.02027 0.00151144 0)
(0.928163 -0.00486126 0)
(1.07425 0.00432135 0)
(0.937459 -0.00429218 0)
(1.07349 0.00390182 0)
(0.947832 -0.0041211 0)
(1.07236 0.00332029 0)
(0.956402 -0.00364564 0)
(1.07036 0.00293541 0)
(0.964266 -0.00318746 0)
(1.06762 0.00247934 0)
(0.971669 -0.00286882 0)
(1.06423 0.00195285 0)
(0.97859 -0.00270911 0)
(1.06018 0.00154106 0)
(0.985123 -0.00250806 0)
(1.05552 0.00130311 0)
(0.991461 -0.00220053 0)
(1.05036 0.00112778 0)
(0.997643 -0.00184312 0)
(1.04475 0.000925286 0)
(1.00355 -0.00150112 0)
(1.03876 0.000667243 0)
(1.0089 -0.00116141 0)
(1.03255 0.000369782 0)
(1.01321 -0.000759699 0)
(1.0263 7.22963e-05 0)
(1.01584 -0.000128539 0)
(1.02008 4.84935e-05 0)
(1.01559 0.00216058 0)
(1.01433 0.00375767 0)
(0.943482 -0.00489439 0)
(1.0583 0.00424787 0)
(0.954314 -0.00432653 0)
(1.05719 0.00382388 0)
(0.965675 -0.0041417 0)
(1.05511 0.00324405 0)
(0.975066 -0.00364671 0)
(1.05207 0.00285283 0)
(0.983401 -0.00316638 0)
(1.04831 0.00238649 0)
(0.99082 -0.00282295 0)
(1.04409 0.00184788 0)
(0.997233 -0.00263427 0)
(1.03962 0.00141891 0)
(1.0028 -0.00240188 0)
(1.03518 0.0011575 0)
(1.00766 -0.00206199 0)
(1.03101 0.000958506 0)
(1.01171 -0.00167244 0)
(1.02721 0.000737695 0)
(1.01477 -0.00129954 0)
(1.02384 0.000474742 0)
(1.01664 -0.000936076 0)
(1.02087 0.000196666 0)
(1.01719 -0.000524291 0)
(1.01818 -1.8558e-05 0)
(1.01625 0.00016147 0)
(1.01535 0.000238915 0)
(1.01352 0.00254556 0)
(1.01244 0.00594016 0)
(0.959265 -0.00490574 0)
(1.0413 0.0041343 0)
(0.969542 -0.00433232 0)
(1.03997 0.00370898 0)
(0.980146 -0.00412529 0)
(1.03758 0.00312832 0)
(0.98873 -0.00360796 0)
(1.03458 0.00273225 0)
(0.995941 -0.00310452 0)
(1.0312 0.00226127 0)
(1.00182 -0.00273927 0)
(1.02774 0.00172045 0)
(1.00629 -0.00253075 0)
(1.02451 0.00128647 0)
(1.00969 -0.00228311 0)
(1.02177 0.00101829 0)
(1.0123 -0.00193177 0)
(1.01963 0.000818041 0)
(1.01409 -0.001533 0)
(1.01798 0.000605332 0)
(1.01502 -0.00115338 0)
(1.01661 0.000366179 0)
(1.01511 -0.000787208 0)
(1.01529 0.000129631 0)
(1.01434 -0.000401598 0)
(1.01376 2.83018e-05 0)
(1.01268 3.80379e-05 0)
(1.01161 0.00109235 0)
(1.01002 0.0016485 0)
(1.00925 0.00843084 0)
(0.973128 -0.0048934 0)
(1.02619 0.00400718 0)
(0.981139 -0.00431508 0)
(1.025 0.00358319 0)
(0.989603 -0.00408596 0)
(1.02298 0.00300229 0)
(0.996205 -0.00355228 0)
(1.02081 0.0026067 0)
(1.00143 -0.0030322 0)
(1.01861 0.00213981 0)
(1.0053 -0.00265263 0)
(1.01654 0.00160719 0)
(1.0078 -0.00243294 0)
(1.01477 0.00117625 0)
(1.00946 -0.0021794 0)
(1.01351 0.000905902 0)
(1.01063 -0.00182267 0)
(1.01274 0.00070552 0)
(1.01134 -0.0014164 0)
(1.01219 0.000501104 0)
(1.01153 -0.00103021 0)
(1.0116 0.000283526 0)
(1.01118 -0.000659223 0)
(1.01077 9.36e-05 0)
(1.01024 -0.000300368 0)
(1.00947 8.09265e-05 0)
(1.00861 0.000238634 0)
(1.00747 0.0010599 0)
(1.00635 0.00260976 0)
(1.00559 0.0062016 0)
(0.983715 -0.00486011 0)
(1.01472 0.00388825 0)
(0.988747 -0.00428189 0)
(1.01391 0.00346756 0)
(0.994631 -0.00403493 0)
(1.01258 0.00288676 0)
(0.999011 -0.0034924 0)
(1.01141 0.00249418 0)
(1.00233 -0.00296142 0)
(1.01034 0.00203417 0)
(1.0046 -0.002571 0)
(1.00936 0.00151077 0)
(1.00584 -0.00234127 0)
(1.00853 0.00107934 0)
(1.00656 -0.00208026 0)
(1.00804 0.000798295 0)
(1.00713 -0.00171312 0)
(1.00783 0.000586304 0)
(1.00749 -0.00128999 0)
(1.00767 0.000373065 0)
(1.00752 -0.00087618 0)
(1.00733 0.000147476 0)
(1.00713 -0.000466312 0)
(1.00663 -3.32414e-05 0)
(1.0062 -4.83849e-05 0)
(1.00544 -7.8758e-05 0)
(1.00463 0.000792348 0)
(1.00362 0.000595572 0)
(1.00253 0.00410023 0)
(1.00205 0.00467379 0)
(0.990858 -0.00481094 0)
(1.00712 0.00378723 0)
(0.993156 -0.00423776 0)
(1.00671 0.00336967 0)
(0.996837 -0.00397741 0)
(1.006 0.00278728 0)
(0.999423 -0.00343075 0)
(1.00554 0.0023958 0)
(1.00137 -0.00289184 0)
(1.00517 0.00194016 0)
(1.00265 -0.0024917 0)
(1.00477 0.00142298 0)
(1.00323 -0.00225237 0)
(1.00438 0.00098855 0)
(1.00354 -0.00198599 0)
(1.00416 0.00069773 0)
(1.00384 -0.00161519 0)
(1.00413 0.000480246 0)
(1.00405 -0.00118713 0)
(1.00407 0.000271953 0)
(1.00402 -0.000769797 0)
(1.00381 7.08851e-05 0)
(1.00362 -0.000385174 0)
(1.00317 -3.86585e-05 0)
(1.0027 -2.93418e-05 0)
(1.00204 0.000177325 0)
(1.0012 0.000312252 0)
(1.00037 0.0018704 0)
(0.999361 0.00260912 0)
(0.999082 0.0102196 0)
(0.995196 -0.00475052 0)
(1.00262 0.00370261 0)
(0.995503 -0.00418462 0)
(1.00249 0.00328597 0)
(0.997685 -0.00391384 0)
(1.00217 0.00269892 0)
(0.999088 -0.00336474 0)
(1.00207 0.00230449 0)
(1.00018 -0.00281859 0)
(1.00201 0.00184861 0)
(1.0009 -0.00240835 0)
(1.00187 0.00133326 0)
(1.00115 -0.00215776 0)
(1.00164 0.000892951 0)
(1.00125 -0.0018845 0)
(1.00148 0.000590918 0)
(1.00139 -0.00150836 0)
(1.00146 0.000367027 0)
(1.00148 -0.0010762 0)
(1.0014 0.00016727 0)
(1.00138 -0.000657877 0)
(1.00114 -5.58144e-06 0)
(1.00094 -0.000277175 0)
(1.00051 -7.00763e-05 0)
(1.00005 7.68906e-05 0)
(0.999367 0.000247355 0)
(0.998651 0.000437618 0)
(0.997777 0.00205958 0)
(0.997336 0.00233543 0)
(0.996774 0.0100322 0)
(0.997623 -0.00468161 0)
(1.00017 0.00362703 0)
(0.996706 -0.00412256 0)
(1.00017 0.00320855 0)
(0.998025 -0.00384312 0)
(1.00006 0.00261412 0)
(0.998741 -0.00329148 0)
(1.00009 0.00221312 0)
(0.999337 -0.00273771 0)
(1.00014 0.00175284 0)
(0.999739 -0.00231623 0)
(1.0001 0.00123448 0)
(0.999815 -0.00205088 0)
(0.999925 0.00078402 0)
(0.999781 -0.00176497 0)
(0.999765 0.000465064 0)
(0.99979 -0.0013763 0)
(0.999702 0.000227512 0)
(0.999765 -0.000929976 0)
(0.999597 2.30486e-05 0)
(0.999584 -0.000492051 0)
(0.999305 -0.000143365 0)
(0.999111 -7.40092e-05 0)
(0.998658 -0.000215093 0)
(0.998208 0.000404327 0)
(0.997522 -7.78471e-05 0)
(0.996868 0.00142013 0)
(0.996014 0.000781207 0)
(0.995766 0.00393907 0)
(0.995394 0.00266121 0)
(0.998903 -0.00460551 0)
(0.998912 0.00355274 0)
(0.997321 -0.00405105 0)
(0.998957 0.00313051 0)
(0.998196 -0.00376427 0)
(0.998952 0.00252728 0)
(0.99854 -0.00320979 0)
(0.99901 0.00211868 0)
(0.998849 -0.00264959 0)
(0.999096 0.00165429 0)
(0.999065 -0.00221986 0)
(0.99909 0.00113569 0)
(0.999043 -0.00194589 0)
(0.998943 0.000684706 0)
(0.998925 -0.00165783 0)
(0.998766 0.000365602 0)
(0.998833 -0.00127507 0)
(0.998655 0.000138769 0)
(0.998709 -0.000843282 0)
(0.9985 -3.58289e-05 0)
(0.998456 -0.000435508 0)
(0.998174 -0.000139655 0)
(0.997943 -7.11219e-05 0)
(0.997514 -0.000114242 0)
(0.997028 0.000363105 0)
(0.996414 0.000176795 0)
(0.995691 0.00140824 0)
(0.995 0.00103329 0)
(0.994442 0.00405252 0)
(0.994866 0.00167427 0)
(0.999548 -0.00452263 0)
(0.99829 0.00347392 0)
(0.997634 -0.00396922 0)
(0.998342 0.00304677 0)
(0.998292 -0.00367546 0)
(0.998393 0.002433 0)
(0.998445 -0.00311644 0)
(0.998456 0.00201483 0)
(0.998592 -0.00254787 0)
(0.998546 0.00154221 0)
(0.998701 -0.00210581 0)
(0.998561 0.00101711 0)
(0.99863 -0.00181626 0)
(0.998431 0.000556537 0)
(0.998467 -0.0015135 0)
(0.998238 0.000226598 0)
(0.998311 -0.0011231 0)
(0.998086 -2.70838e-06 0)
(0.99812 -0.000685784 0)
(0.997884 -0.000171393 0)
(0.997819 -0.000280067 0)
(0.997523 -0.000251671 0)
(0.997285 8.38728e-05 0)
(0.996847 -0.000174165 0)
(0.996375 0.000511379 0)
(0.995761 0.000272382 0)
(0.995081 0.0013235 0)
(0.994448 0.00167902 0)
(0.993918 0.00397701 0)
(0.994846 0.00613942 0)
(0.999859 -0.00443323 0)
(0.998001 0.0033875 0)
(0.997787 -0.00387686 0)
(0.998048 0.00295556 0)
(0.998342 -0.00357715 0)
(0.998136 0.00233134 0)
(0.998399 -0.00301449 0)
(0.998197 0.00190539 0)
(0.998456 -0.00243976 0)
(0.998286 0.00142744 0)
(0.998509 -0.00199174 0)
(0.998313 0.000903985 0)
(0.998416 -0.00169719 0)
(0.998197 0.000447939 0)
(0.998232 -0.00139834 0)
(0.997997 0.000131171 0)
(0.998039 -0.00102537 0)
(0.997818 -7.40357e-05 0)
(0.997805 -0.000621542 0)
(0.997584 -0.000196034 0)
(0.997473 -0.000262568 0)
(0.997201 -0.000193739 0)
(0.996926 4.3105e-05 0)
(0.996518 6.40555e-06 0)
(0.99603 0.0003345 0)
(0.995446 0.000681828 0)
(0.994807 0.00103543 0)
(0.994263 0.0024741 0)
(0.993988 0.00367218 0)
(0.994862 0.0103279 0)
(0.999998 -0.00433709 0)
(0.997881 0.00329102 0)
(0.997857 -0.00377255 0)
(0.997922 0.00285435 0)
(0.998363 -0.00346692 0)
(0.998035 0.00221833 0)
(0.998376 -0.0028993 0)
(0.998095 0.00178294 0)
(0.998385 -0.00231636 0)
(0.99818 0.00129811 0)
(0.998408 -0.00186129 0)
(0.998214 0.000772774 0)
(0.998309 -0.00155723 0)
(0.998109 0.0003188 0)
(0.998121 -0.00125817 0)
(0.997906 8.90692e-06 0)
(0.99791 -0.000890563 0)
(0.997709 -0.000182379 0)
(0.997655 -0.000513668 0)
(0.997454 -0.000266479 0)
(0.99731 -0.000184534 0)
(0.997052 -0.000210554 0)
(0.996764 0.000113804 0)
(0.996355 2.33567e-05 0)
(0.995899 0.000530679 0)
(0.99531 0.000685367 0)
(0.994756 0.00153657 0)
(0.994258 0.00240444 0)
(0.994501 0.00401551 0)
(0.995185 0.00647206 0)
(1.00006 -0.00423412 0)
(0.997841 0.00318335 0)
(0.997892 -0.00365603 0)
(0.997876 0.00274291 0)
(0.998374 -0.00334501 0)
(0.998005 0.00209431 0)
(0.99837 -0.00277296 0)
(0.998066 0.00165107 0)
(0.998354 -0.0021851 0)
(0.998148 0.00116361 0)
(0.998361 -0.00172706 0)
(0.998186 0.000640846 0)
(0.99826 -0.00142168 0)
(0.998089 0.000199579 0)
(0.998071 -0.00112951 0)
(0.99789 -9.37213e-05 0)
(0.997851 -0.000783669 0)
(0.997688 -0.000251064 0)
(0.997583 -0.000441988 0)
(0.997423 -0.000283191 0)
(0.997229 -0.000149174 0)
(0.997018 -0.000189036 0)
(0.996681 0.000170609 0)
(0.99634 3.68738e-05 0)
(0.995832 0.000780346 0)
(0.995344 0.000625429 0)
(0.99476 0.0021112 0)
(0.994381 0.00230352 0)
(0.994313 0.00463685 0)
(0.995642 0.00290291 0)
(1.00008 -0.00412389 0)
(0.997835 0.00306309 0)
(0.997913 -0.00352587 0)
(0.997862 0.00261902 0)
(0.998385 -0.00320905 0)
(0.998001 0.00195655 0)
(0.998378 -0.00263351 0)
(0.99806 0.00150634 0)
(0.998353 -0.00204063 0)
(0.998136 0.00101445 0)
(0.998354 -0.00157847 0)
(0.998171 0.000497209 0)
(0.998257 -0.00127773 0)
(0.998076 7.22298e-05 0)
(0.998074 -0.000999978 0)
(0.997878 -0.000192285 0)
(0.997858 -0.000693869 0)
(0.997669 -0.000303584 0)
(0.997591 -0.000396174 0)
(0.997395 -0.000280405 0)
(0.997239 -0.000143087 0)
(0.996986 -0.000114145 0)
(0.996699 0.0001238 0)
(0.996322 0.000265396 0)
(0.995876 0.000606186 0)
(0.995383 0.00108458 0)
(0.994894 0.00185237 0)
(0.994535 0.00310606 0)
(0.994487 0.00484573 0)
(0.996307 0.00720911 0)
(1.00008 -0.00400689 0)
(0.99785 0.00293059 0)
(0.997924 -0.00338272 0)
(0.997869 0.00248507 0)
(0.998389 -0.0030627 0)
(0.998015 0.00181092 0)
(0.998384 -0.00248731 0)
(0.998075 0.00135698 0)
(0.998352 -0.00189348 0)
(0.998147 0.000869029 0)
(0.998348 -0.00144129 0)
(0.998179 0.000372845 0)
(0.998253 -0.00115567 0)
(0.998088 -2.35697e-05 0)
(0.998076 -0.00091472 0)
(0.997893 -0.000238536 0)
(0.997863 -0.000663854 0)
(0.997685 -0.000287725 0)
(0.997598 -0.000430789 0)
(0.997408 -0.000188688 0)
(0.997251 -0.000239896 0)
(0.996999 6.87834e-05 0)
(0.996727 -5.5511e-05 0)
(0.996347 0.000629475 0)
(0.995941 0.000353157 0)
(0.995464 0.00168792 0)
(0.995063 0.0014908 0)
(0.994802 0.00395273 0)
(0.994997 0.00493211 0)
(0.996529 0.0117561 0)
(1.00007 -0.00388109 0)
(0.997879 0.00278194 0)
(0.997928 -0.0032229 0)
(0.997893 0.00233572 0)
(0.998384 -0.00289912 0)
(0.998047 0.00164783 0)
(0.998382 -0.00232352 0)
(0.99811 0.00119123 0)
(0.998346 -0.00173205 0)
(0.998179 0.000712296 0)
(0.998338 -0.00129048 0)
(0.998208 0.000230714 0)
(0.998246 -0.00101212 0)
(0.998118 -0.000134788 0)
(0.998076 -0.000801383 0)
(0.997925 -0.000309107 0)
(0.997871 -0.000592192 0)
(0.997715 -0.000311758 0)
(0.997614 -0.00038571 0)
(0.997434 -0.000196156 0)
(0.997277 -0.00016659 0)
(0.997022 3.07417e-05 0)
(0.996776 0.000150846 0)
(0.996386 0.000474018 0)
(0.996034 0.000796211 0)
(0.995559 0.00147904 0)
(0.995261 0.00227559 0)
(0.995112 0.00354916 0)
(0.995871 0.004999 0)
(0.996956 0.00700678 0)
(1.00006 -0.00374811 0)
(0.997912 0.00262006 0)
(0.997935 -0.00304989 0)
(0.99792 0.00217401 0)
(0.998383 -0.00272381 0)
(0.998085 0.00147311 0)
(0.998384 -0.00215243 0)
(0.998153 0.00101723 0)
(0.998343 -0.00156689 0)
(0.998223 0.000548658 0)
(0.99833 -0.0011376 0)
(0.998251 9.16465e-05 0)
(0.998237 -0.000914835 0)
(0.998163 -0.000225992 0)
(0.998071 -0.000741003 0)
(0.997974 -0.00034627 0)
(0.99787 -0.000573549 0)
(0.997769 -0.000304539 0)
(0.997615 -0.000375727 0)
(0.997495 -0.000185228 0)
(0.997279 -0.00012438 0)
(0.997099 -3.05616e-06 0)
(0.996784 0.00032127 0)
(0.996496 0.000335272 0)
(0.996088 0.0011871 0)
(0.995752 0.00132465 0)
(0.995404 0.00299638 0)
(0.995325 0.00334265 0)
(0.995621 0.00516784 0)
(0.997492 0.0027905 0)
(1.00006 -0.0036126 0)
(0.997934 0.0024518 0)
(0.997958 -0.00287034 0)
(0.997932 0.00201596 0)
(0.998401 -0.00255204 0)
(0.998102 0.00131419 0)
(0.99841 -0.00199748 0)
(0.998172 0.000873976 0)
(0.998371 -0.00143295 0)
(0.998236 0.000434084 0)
(0.998358 -0.00103354 0)
(0.998254 2.83091e-05 0)
(0.998271 -0.000839281 0)
(0.998164 -0.000240626 0)
(0.998116 -0.000722305 0)
(0.997975 -0.000305908 0)
(0.997925 -0.000597848 0)
(0.997771 -0.000225762 0)
(0.997676 -0.000425458 0)
(0.997498 -4.93688e-05 0)
(0.997346 -0.00019972 0)
(0.997116 0.000201532 0)
(0.996866 0.000162787 0)
(0.99655 0.000706577 0)
(0.996226 0.000958472 0)
(0.995895 0.00186128 0)
(0.995645 0.00269844 0)
(0.995548 0.00429375 0)
(0.995803 0.00581863 0)
(0.998293 0.00772633 0)
(1.00006 -0.0034505 0)
(0.997963 0.00223877 0)
(0.997975 -0.00264541 0)
(0.99795 0.0017988 0)
(0.998411 -0.00231733 0)
(0.998127 0.00107277 0)
(0.998427 -0.0017617 0)
(0.998199 0.000630429 0)
(0.998386 -0.00120482 0)
(0.99826 0.000205569 0)
(0.998372 -0.000838942 0)
(0.998275 -0.000166119 0)
(0.998287 -0.000669894 0)
(0.998182 -0.00038109 0)
(0.99814 -0.000606852 0)
(0.997996 -0.000387144 0)
(0.997957 -0.000545419 0)
(0.997797 -0.000244637 0)
(0.997715 -0.000456159 0)
(0.997531 1.84931e-05 0)
(0.997391 -0.000328647 0)
(0.997156 0.000473742 0)
(0.996937 -8.22839e-05 0)
(0.996625 0.00126683 0)
(0.996353 0.000604422 0)
(0.996059 0.00260318 0)
(0.995918 0.00218248 0)
(0.995935 0.00534126 0)
(0.996383 0.00627514 0)
(0.998192 0.0130149 0)
(1.00004 -0.00332184 0)
(0.998015 0.00207556 0)
(0.997978 -0.00247154 0)
(0.997991 0.0016644 0)
(0.998403 -0.00217463 0)
(0.998177 0.000962691 0)
(0.998425 -0.00167147 0)
(0.998253 0.00056972 0)
(0.998383 -0.00117136 0)
(0.998309 0.000219077 0)
(0.998369 -0.000896922 0)
(0.998315 -6.51344e-05 0)
(0.998292 -0.000838312 0)
(0.998219 -0.000185128 0)
(0.998156 -0.000832007 0)
(0.998031 -0.000148666 0)
(0.997984 -0.000769115 0)
(0.997831 -3.40099e-05 0)
(0.997753 -0.000622782 0)
(0.997563 0.000133199 0)
(0.997455 -0.000355641 0)
(0.997197 0.000470035 0)
(0.997036 0.000137638 0)
(0.996702 0.00110088 0)
(0.996505 0.00108334 0)
(0.996216 0.00241162 0)
(0.996219 0.00303735 0)
(0.996407 0.00479486 0)
(0.997474 0.00580744 0)
(0.998473 0.00710408 0)
(1.00003 -0.00312236 0)
(0.998073 0.00179998 0)
(0.997986 -0.00218581 0)
(0.998038 0.00138701 0)
(0.9984 -0.00187509 0)
(0.998235 0.000657987 0)
(0.998427 -0.00136695 0)
(0.998316 0.000260527 0)
(0.998383 -0.000862316 0)
(0.998369 -7.16971e-05 0)
(0.998367 -0.000555753 0)
(0.99837 -0.000370182 0)
(0.998293 -0.000463128 0)
(0.998275 -0.000533734 0)
(0.998159 -0.000377956 0)
(0.998097 -0.000591176 0)
(0.997986 -0.000186816 0)
(0.99791 -0.000599204 0)
(0.997752 0.000146888 0)
(0.997663 -0.000582412 0)
(0.997456 0.000582745 0)
(0.997323 -0.000468468 0)
(0.997054 0.00125393 0)
(0.996874 -5.86957e-06 0)
(0.996606 0.0023763 0)
(0.996513 0.00128146 0)
(0.996414 0.00450874 0)
(0.996585 0.00357969 0)
(0.99689 0.00652835 0)
(0.998967 0.00255665 0)
(1.00004 -0.00298979 0)
(0.99811 0.00162405 0)
(0.998022 -0.00200424 0)
(0.998057 0.00125018 0)
(0.998428 -0.00173393 0)
(0.998259 0.000554499 0)
(0.998469 -0.00130217 0)
(0.99834 0.000224587 0)
(0.998429 -0.000905917 0)
(0.998385 4.26157e-06 0)
(0.998415 -0.000754448 0)
(0.998376 -0.000133551 0)
(0.998347 -0.000816568 0)
(0.99828 -0.000136996 0)
(0.998221 -0.00089803 0)
(0.998105 -2.50001e-05 0)
(0.998055 -0.000909156 0)
(0.997928 0.000187578 0)
(0.997826 -0.00085343 0)
(0.997683 0.000592675 0)
(0.997539 -0.000739902 0)
(0.997365 0.00116298 0)
(0.997175 -0.000435834 0)
(0.996967 0.00210937 0)
(0.9968 0.000427768 0)
(0.996707 0.00357041 0)
(0.996745 0.00203699 0)
(0.996928 0.00625538 0)
(0.997299 0.00610776 0)
(0.999175 0.0136226 0)
(1.00003 -0.00278691 0)
(0.998174 0.00134716 0)
(0.998042 -0.00171768 0)
(0.998103 0.000995325 0)
(0.998434 -0.0014627 0)
(0.998313 0.0003106 0)
(0.998483 -0.00107279 0)
(0.998396 1.02875e-05 0)
(0.998446 -0.000720271 0)
(0.998432 -0.000166605 0)
(0.998437 -0.000626043 0)
(0.998414 -0.000256428 0)
(0.998376 -0.000682171 0)
(0.998313 -0.000283931 0)
(0.998259 -0.000695253 0)
(0.99814 -0.000267804 0)
(0.998103 -0.000601467 0)
(0.997959 -0.000214528 0)
(0.997905 -0.000411507 0)
(0.997718 -2.07304e-05 0)
(0.997646 -3.55242e-05 0)
(0.997407 0.000461345 0)
(0.997325 0.000530805 0)
(0.997062 0.00124542 0)
(0.996999 0.00160647 0)
(0.996869 0.00269622 0)
(0.997112 0.00347475 0)
(0.997556 0.00484641 0)
(0.998785 0.00582607 0)
(0.99938 0.00722128 0)
(1.00003 -0.0026356 0)
(0.998238 0.00113189 0)
(0.998075 -0.00150631 0)
(0.998149 0.000827942 0)
(0.998449 -0.00128206 0)
(0.998373 0.000172071 0)
(0.998506 -0.000927327 0)
(0.998461 -8.29726e-05 0)
(0.998467 -0.000614977 0)
(0.998494 -0.000216089 0)
(0.998454 -0.000512464 0)
(0.998474 -0.00033484 0)
(0.998388 -0.000506185 0)
(0.998385 -0.00043314 0)
(0.998264 -0.000388313 0)
(0.998227 -0.000524353 0)
(0.998101 -9.98282e-05 0)
(0.998067 -0.000623323 0)
(0.997892 0.000354355 0)
(0.997854 -0.000719505 0)
(0.997655 0.000957581 0)
(0.997574 -0.00063267 0)
(0.997358 0.00182715 0)
(0.997283 -0.000175458 0)
(0.997142 0.00313621 0)
(0.997213 0.00125081 0)
(0.997282 0.00539884 0)
(0.99757 0.00338817 0)
(0.997918 0.00651347 0)
(0.99989 0.000950002 0)
(1.00009 -0.00240076 0)
(0.998248 0.00081603 0)
(0.99817 -0.00119885 0)
(0.998131 0.000547078 0)
(0.998531 -0.0010145 0)
(0.99836 -7.38037e-05 0)
(0.998602 -0.000755948 0)
(0.998448 -0.000242852 0)
(0.998568 -0.000551237 0)
(0.998472 -0.000246483 0)
(0.998554 -0.000608961 0)
(0.998449 -0.000198728 0)
(0.99849 -0.000811852 0)
(0.998366 -6.74929e-05 0)
(0.998369 -0.00101411 0)
(0.998223 0.000170905 0)
(0.998205 -0.00112848 0)
(0.998079 0.000513896 0)
(0.997998 -0.00111845 0)
(0.997878 0.000961968 0)
(0.997758 -0.000966207 0)
(0.997639 0.00152318 0)
(0.997499 -0.000450674 0)
(0.997413 0.00236213 0)
(0.99738 0.00054213 0)
(0.997477 0.00376639 0)
(0.997686 0.00252085 0)
(0.997942 0.00691799 0)
(0.998222 0.00737014 0)
(1.00001 0.0135627 0)
(1.0001 -0.00230079 0)
(0.998309 0.000682975 0)
(0.998223 -0.00107377 0)
(0.998159 0.00049943 0)
(0.998568 -0.000952339 0)
(0.998392 -9.26794e-05 0)
(0.998656 -0.000792702 0)
(0.99848 -0.00020409 0)
(0.998629 -0.000637838 0)
(0.998489 -0.000173286 0)
(0.998622 -0.00069734 0)
(0.998453 -0.000129036 0)
(0.998566 -0.000869528 0)
(0.998361 -1.59454e-05 0)
(0.998461 -0.00103626 0)
(0.998211 0.000222447 0)
(0.998318 -0.00114277 0)
(0.998067 0.000587316 0)
(0.998134 -0.00116013 0)
(0.997878 0.00109295 0)
(0.997928 -0.0010165 0)
(0.997671 0.001805 0)
(0.997697 -0.000556395 0)
(0.997496 0.00275586 0)
(0.997622 0.000351919 0)
(0.997691 0.00400027 0)
(0.998236 0.00194497 0)
(0.998889 0.00662572 0)
(0.999908 0.00670474 0)
(0.999431 0.0135128 0)
(1.00006 -0.00202654 0)
(0.998442 0.000306482 0)
(0.998228 -0.000674449 0)
(0.998256 0.000154446 0)
(0.998552 -0.000519449 0)
(0.998494 -0.000420641 0)
(0.998658 -0.000381549 0)
(0.998584 -0.000578438 0)
(0.998634 -0.000167112 0)
(0.998588 -0.000670039 0)
(0.998622 -6.08942e-05 0)
(0.99855 -0.000831991 0)
(0.99857 2.39319e-05 0)
(0.998463 -0.000991641 0)
(0.998471 0.000197233 0)
(0.998322 -0.0011265 0)
(0.998335 0.000494274 0)
(0.998183 -0.00116878 0)
(0.998164 0.000865829 0)
(0.998002 -0.0010383 0)
(0.99798 0.00132194 0)
(0.997817 -0.000651308 0)
(0.997796 0.00199384 0)
(0.997691 0.000126444 0)
(0.997778 0.00307136 0)
(0.997938 0.0012477 0)
(0.998492 0.00412644 0)
(0.99931 0.00169592 0)
(1.00038 0.00351627 0)
(0.99992 0.00013119 0)
(1.00003 -0.00188944 0)
(0.998568 0.000119495 0)
(0.998262 -0.000652612 0)
(0.99834 0.000144311 0)
(0.99857 -0.000686093 0)
(0.998575 -0.000270801 0)
(0.99869 -0.000656171 0)
(0.998671 -0.000330555 0)
(0.998668 -0.000511667 0)
(0.99867 -0.00035986 0)
(0.998651 -0.000452787 0)
(0.998632 -0.000466079 0)
(0.998595 -0.000401302 0)
(0.998554 -0.000600127 0)
(0.99849 -0.000253193 0)
(0.998426 -0.000739282 0)
(0.99836 2.11647e-05 0)
(0.998303 -0.000762963 0)
(0.998205 0.000413976 0)
(0.998139 -0.000590061 0)
(0.998054 0.000925879 0)
(0.997986 -0.000114574 0)
(0.997919 0.00169377 0)
(0.997918 0.000749542 0)
(0.997951 0.00275527 0)
(0.99813 0.00186544 0)
(0.998402 0.00348018 0)
(0.99885 0.00157494 0)
(0.99945 0.001902 0)
(1.00165 0.000175437 0)
(1.00005 -0.00173682 0)
(0.998645 -9.59157e-05 0)
(0.998349 -0.000460823 0)
(0.998368 3.92384e-05 0)
(0.998638 -0.000284175 0)
(0.998611 -0.000513903 0)
(0.998774 -0.000345436 0)
(0.998712 -0.000594023 0)
(0.998753 -0.000228892 0)
(0.998707 -0.000605946 0)
(0.998732 -0.000202957 0)
(0.99867 -0.000631862 0)
(0.998674 -0.000229483 0)
(0.998598 -0.000627497 0)
(0.99857 -0.00022276 0)
(0.998482 -0.000561573 0)
(0.998448 -0.000132221 0)
(0.998374 -0.000418049 0)
(0.998308 6.34642e-05 0)
(0.998228 -9.40687e-05 0)
(0.998187 0.000454729 0)
(0.998115 0.000474932 0)
(0.998101 0.00117247 0)
(0.998082 0.00131945 0)
(0.998166 0.00207193 0)
(0.998267 0.00240816 0)
(0.998505 0.00322181 0)
(0.998982 0.0038728 0)
(1.00011 0.00491795 0)
(1.00388 0.00613258 0)
(1.00005 -0.00143191 0)
(0.998767 -0.000407965 0)
(0.998421 -0.000253984 0)
(0.998459 -0.000132174 0)
(0.998668 -0.000292344 0)
(0.998673 -0.000410696 0)
(0.998828 -0.000491637 0)
(0.998788 -0.000382679 0)
(0.998811 -0.000553639 0)
(0.99878 -0.000227401 0)
(0.998793 -0.000713145 0)
(0.998737 -4.52194e-05 0)
(0.998739 -0.000941509 0)
(0.998664 0.000156562 0)
(0.998642 -0.00112311 0)
(0.998551 0.000402897 0)
(0.998525 -0.0011671 0)
(0.998451 0.000713937 0)
(0.998407 -0.00102145 0)
(0.998333 0.0011581 0)
(0.998313 -0.000585884 0)
(0.998268 0.00177318 0)
(0.998255 0.000162659 0)
(0.998269 0.00250658 0)
(0.998373 0.00102272 0)
(0.998586 0.00352729 0)
(0.998977 0.00252032 0)
(0.999526 0.00638593 0)
(1.00032 0.00743718 0)
(1.00296 0.0124641 0)
(1.00003 -0.00155514 0)
(0.998887 -0.00029538 0)
(0.998487 -0.000526611 0)
(0.998513 0.000166502 0)
(0.99873 -0.000475585 0)
(0.998738 -0.000195381 0)
(0.998895 -0.00063929 0)
(0.99885 -0.000289237 0)
(0.998893 -0.000620374 0)
(0.998829 -0.000262728 0)
(0.998882 -0.000652182 0)
(0.998777 -0.000233616 0)
(0.998834 -0.000713423 0)
(0.998703 -0.000217807 0)
(0.998746 -0.000718571 0)
(0.998602 -0.000167113 0)
(0.998646 -0.000614664 0)
(0.998524 2.1129e-05 0)
(0.998546 -0.000307391 0)
(0.99844 0.000435777 0)
(0.998477 0.000260381 0)
(0.998408 0.00107816 0)
(0.998439 0.00105144 0)
(0.998424 0.00193878 0)
(0.998609 0.00203933 0)
(0.998825 0.00295353 0)
(0.999577 0.0031092 0)
(1.00074 0.00385747 0)
(1.00238 0.00396489 0)
(1.00303 0.00511229 0)
(0.99999 -0.00092293 0)
(0.999054 -0.000970809 0)
(0.998551 3.57736e-05 0)
(0.998664 -0.000414285 0)
(0.998723 0.000249126 0)
(0.998854 -0.000862463 0)
(0.99891 0.000125898 0)
(0.998986 -0.00110301 0)
(0.99891 0.00026635 0)
(0.998967 -0.00120967 0)
(0.998895 0.000402494 0)
(0.998915 -0.00131268 0)
(0.998844 0.000525083 0)
(0.998846 -0.00141773 0)
(0.998757 0.000682197 0)
(0.998748 -0.00145763 0)
(0.998672 0.000887116 0)
(0.998686 -0.00131722 0)
(0.99861 0.00117487 0)
(0.99863 -0.00093275 0)
(0.998586 0.00164734 0)
(0.998631 -0.000258344 0)
(0.998609 0.00243687 0)
(0.998705 0.000814706 0)
(0.998803 0.00352691 0)
(0.999071 0.00185746 0)
(0.999393 0.00415643 0)
(0.999921 0.00134308 0)
(1.00085 0.00212689 0)
(1.00419 -0.00043922 0)
(1.00002 -0.00145707 0)
(0.999115 -0.000267692 0)
(0.99869 -0.000800585 0)
(0.998679 0.00053399 0)
(0.998836 -0.000883989 0)
(0.998874 0.000380166 0)
(0.999016 -0.00112354 0)
(0.999017 0.000243092 0)
(0.999024 -0.00114123 0)
(0.999001 0.00024557 0)
(0.999008 -0.00111926 0)
(0.998952 0.00027124 0)
(0.998955 -0.00109226 0)
(0.998891 0.000292372 0)
(0.998872 -0.00101433 0)
(0.998807 0.000355685 0)
(0.998803 -0.000858831 0)
(0.998755 0.00053605 0)
(0.998757 -0.000549394 0)
(0.998724 0.000912614 0)
(0.998768 -4.22309e-06 0)
(0.998793 0.0015577 0)
(0.998858 0.000872743 0)
(0.998922 0.00254842 0)
(0.999049 0.00203324 0)
(0.999208 0.00363985 0)
(0.999509 0.00304515 0)
(1.00021 0.00443838 0)
(1.00193 0.00447886 0)
(1.00634 0.00769426 0)
(1.00003 -0.000540892 0)
(0.999221 -0.0013623 0)
(0.99882 5.69249e-05 0)
(0.998762 -0.000528238 0)
(0.998899 0.000455747 0)
(0.998934 -0.000817279 0)
(0.999086 0.0002932 0)
(0.999092 -0.00106181 0)
(0.9991 0.000248543 0)
(0.99908 -0.00111115 0)
(0.999088 0.000275729 0)
(0.99903 -0.0010689 0)
(0.999036 0.00029995 0)
(0.998972 -0.00102233 0)
(0.998957 0.000347127 0)
(0.998893 -0.00091955 0)
(0.998895 0.000456414 0)
(0.99887 -0.000690225 0)
(0.998884 0.000733079 0)
(0.998881 -0.000254476 0)
(0.998939 0.00128266 0)
(0.99899 0.000464145 0)
(0.999081 0.00205706 0)
(0.999182 0.00144325 0)
(0.99934 0.00315255 0)
(0.999541 0.00295227 0)
(0.999868 0.00505522 0)
(1.0006 0.00529168 0)
(1.00235 0.00682788 0)
(1.00683 0.00523931 0)
(1.00003 -0.00112309 0)
(0.999327 -0.000246599 0)
(0.998946 -0.00108868 0)
(0.998874 0.000630063 0)
(0.998972 -0.001019 0)
(0.999009 0.000782165 0)
(0.999151 -0.00142092 0)
(0.999167 0.000646802 0)
(0.99918 -0.00166613 0)
(0.999162 0.000708409 0)
(0.999175 -0.00170001 0)
(0.999115 0.000803817 0)
(0.99912 -0.00164267 0)
(0.99906 0.00082974 0)
(0.999047 -0.00149111 0)
(0.998991 0.000896825 0)
(0.999006 -0.00120074 0)
(0.998983 0.00111015 0)
(0.999013 -0.000795029 0)
(0.999033 0.00144554 0)
(0.999111 -0.000201714 0)
(0.999185 0.00205314 0)
(0.9993 0.000648065 0)
(0.999447 0.00294651 0)
(0.999708 0.00174271 0)
(1.00007 0.00430377 0)
(1.00054 0.0040185 0)
(1.00109 0.00823448 0)
(1.002 0.00963779 0)
(1.00529 0.0137538 0)
(0.999957 -0.000605204 0)
(0.999421 -0.00106622 0)
(0.998983 -0.000312484 0)
(0.998955 -0.000277147 0)
(0.999 3.01091e-05 0)
(0.999061 -0.000280254 0)
(0.999163 -0.000225558 0)
(0.999227 -0.000556345 0)
(0.999215 -0.000414602 0)
(0.999235 -0.000569832 0)
(0.999218 -0.000405948 0)
(0.999194 -0.000481601 0)
(0.999163 -0.000347033 0)
(0.999149 -0.000416117 0)
(0.999099 -0.000240511 0)
(0.9991 -0.00028299 0)
(0.999078 -8.86195e-06 0)
(0.999109 -1.47331e-06 0)
(0.999108 0.000376685 0)
(0.99918 0.000442891 0)
(0.999256 0.000918752 0)
(0.999382 0.00109959 0)
(0.999513 0.00175657 0)
(0.999682 0.0021838 0)
(0.999976 0.00297688 0)
(1.00053 0.00331274 0)
(1.00161 0.00385365 0)
(1.0031 0.00392995 0)
(1.0049 0.00424162 0)
(1.0046 0.00366237 0)
(0.999872 -0.000509011 0)
(0.99968 -0.000905691 0)
(0.99905 -0.00046049 0)
(0.999221 -0.000220918 0)
(0.998997 -0.000104942 0)
(0.99927 -0.00020049 0)
(0.999147 -0.000275731 0)
(0.999422 -0.000450686 0)
(0.999222 -0.000400735 0)
(0.999437 -0.00050461 0)
(0.999244 -0.000350224 0)
(0.999389 -0.000480007 0)
(0.999195 -0.000245601 0)
(0.999335 -0.000443594 0)
(0.999144 -0.000100578 0)
(0.999289 -0.0002874 0)
(0.999149 0.000138686 0)
(0.999318 5.20825e-06 0)
(0.999216 0.000488059 0)
(0.999418 0.000493945 0)
(0.999398 0.00100029 0)
(0.999675 0.0010906 0)
(0.999762 0.00162504 0)
(1.0001 0.00179166 0)
(1.00023 0.00240747 0)
(1.00061 0.00277065 0)
(1.00086 0.00376161 0)
(1.00135 0.00439024 0)
(1.00179 0.00546446 0)
(1.00482 0.00597123 0)
(0.99994 -0.000863298 0)
(0.999582 -0.000388549 0)
(0.999192 -0.000876057 0)
(0.99915 0.000191867 0)
(0.999135 -0.000586431 0)
(0.999188 0.000309103 0)
(0.99926 -0.000770723 0)
(0.999358 1.66905e-05 0)
(0.999341 -0.000968425 0)
(0.999395 -4.73631e-05 0)
(0.999358 -0.000942483 0)
(0.999365 2.14198e-05 0)
(0.999305 -0.000819164 0)
(0.999332 0.000102259 0)
(0.999269 -0.000638531 0)
(0.999309 0.000299561 0)
(0.999287 -0.000342748 0)
(0.999354 0.000629413 0)