/*--------------------------------*- C++ -*----------------------------------*\
| =========                 |                                                 |
| \\      /  F ield         | OpenFOAM: The Open Source CFD Toolbox           |
|  \\    /   O peration     | Version:  v2006                                 |
|   \\  /    A nd           | Website:  www.openfoam.com                      |
|    \\/     M anipulation  |                                                 |
\*---------------------------------------------------------------------------*/
FoamFile
{
    version     2.0;
    format      ascii;
    class       volScalarField;
    location    "1.3";
    object      p;
}
// * * * * * * * * * * * * * * * * * * * * * * * * * * * * * * * * * * * * * //

dimensions      [0 2 -2 0 0 0 0];


internalField   nonuniform List<scalar> 
26400
(
1.66109e-09
0.00221527
0.00208472
0.00230586
0.00173705
0.00202119
0.00165526
0.0019822
0.00168244
0.00200434
0.00174537
0.00204505
0.0018343
0.00212708
0.0019463
0.00224793
0.00211847
0.00245375
0.00238721
0.00277926
0.00281
0.00330545
0.00348153
0.00413681
0.00453548
0.00546743
0.00627151
0.00784225
0.00958142
0.0122111
3.31365e-07
0.00221534
0.00208518
0.00230587
0.00173769
0.00202123
0.00165606
0.00198217
0.00168336
0.00200419
0.00174642
0.00204479
0.00183553
0.00212668
0.00194779
0.00224725
0.00212032
0.00245256
0.00238955
0.00277704
0.00281309
0.0033009
0.003486
0.00412587
0.00454372
0.00543329
0.00629041
0.00769749
0.00957015
0.0115234
1.31223e-06
0.00221564
0.00208608
0.00230595
0.00173894
0.00202125
0.00165757
0.00198202
0.00168513
0.00200378
0.00174846
0.00204415
0.00183794
0.00212576
0.00195064
0.00224586
0.0021237
0.00245041
0.00239355
0.0027736
0.00281775
0.0032952
0.00349125
0.00411594
0.00455012
0.005415
0.00628678
0.00761913
0.00945377
0.010864
3.43828e-06
0.00221651
0.00208732
0.00230633
0.00174056
0.00202144
0.00165948
0.00198195
0.00168738
0.00200335
0.00175104
0.00204342
0.0018409
0.00212465
0.00195404
0.00224413
0.00212763
0.00244765
0.00239813
0.00276912
0.00282302
0.00328793
0.00349698
0.00410308
0.00455566
0.00538404
0.00628637
0.00749519
0.00922802
0.010311
7.19739e-06
0.00221784
0.0020889
0.0023069
0.00174248
0.00202167
0.0016617
0.00198184
0.00168997
0.00200276
0.00175395
0.00204239
0.00184418
0.0021231
0.00195773
0.00224175
0.00213185
0.00244399
0.00240299
0.00276336
0.00282847
0.00327901
0.00350255
0.00408769
0.00455848
0.00535667
0.00625439
0.00740425
0.00887962
0.00986286
1.2762e-05
0.00221927
0.00209078
0.00230735
0.00174465
0.00202166
0.00166411
0.00198139
0.00169276
0.00200173
0.00175706
0.00204083
0.00184769
0.00212086
0.00196169
0.00223851
0.0021364
0.00243926
0.00240819
0.00275638
0.00283404
0.00326893
0.00350773
0.00407502
0.00455723
0.0053414
0.00618713
0.00732773
0.00849703
0.00931156
1.99718e-05
0.00222052
0.00209293
0.00230747
0.001747
0.00202121
0.00166665
0.00198044
0.0016957
0.00200016
0.0017604
0.00203863
0.0018515
0.00211788
0.00196609
0.00223434
0.00214153
0.00243339
0.00241403
0.00274803
0.00284002
0.00325703
0.0035131
0.00405773
0.00455581
0.00530114
0.00616079
0.00715622
0.00833719
0.00889899
2.8492e-05
0.00222148
0.0020953
0.00230718
0.00174954
0.00202026
0.00166933
0.00197895
0.00169887
0.00199803
0.00176406
0.00203585
0.00185576
0.0021142
0.00197105
0.00222928
0.00214733
0.00242644
0.00242051
0.00273851
0.0028463
0.00324267
0.00351759
0.00403994
0.00455204
0.00526213
0.00610686
0.00699229
0.00801536
0.00845519
3.79836e-05
0.00222215
0.00209792
0.00230653
0.00175235
0.00201883
0.00167224
0.00197696
0.00170238
0.00199537
0.00176818
0.00203247
0.0018606
0.0021098
0.00197668
0.00222338
0.00215378
0.00241859
0.00242742
0.0027283
0.00285264
0.00323042
0.00351924
0.00402498
0.00453227
0.00526077
0.00598472
0.00689219
0.00737342
0.00796539
4.82027e-05
0.00222261
0.00210082
0.00230559
0.00175553
0.00201697
0.0016755
0.00197446
0.00170636
0.00199215
0.00177289
0.00202842
0.00186615
0.00210459
0.0019831
0.00221648
0.00216103
0.00240956
0.00243494
0.00271599
0.00285955
0.00321509
0.0035213
0.00400417
0.00452239
0.00521591
0.00591324
0.00676148
0.00705454
0.00741999
5.90208e-05
0.0022229
0.00210403
0.0023044
0.00175916
0.00201469
0.00167919
0.00197144
0.00171088
0.00198832
0.00177826
0.00202366
0.00187245
0.00209853
0.00199029
0.00220862
0.0021689
0.0023996
0.00244269
0.00270326
0.00286577
0.00319924
0.00352219
0.00398011
0.00451064
0.00514529
0.00588154
0.00659578
0.00713796
0.00679874
7.04051e-05
0.00222302
0.00210761
0.00230301
0.00176334
0.00201198
0.00168337
0.00196784
0.00171604
0.00198381
0.00178438
0.00201809
0.00187957
0.00209155
0.00199826
0.00219979
0.00217727
0.00238873
0.0024505
0.00269025
0.0028706
0.00318354
0.00351993
0.00395582
0.00449009
0.00508983
0.00581338
0.00642211
0.00697881
0.00605852
8.23857e-05
0.00222294
0.00211158
0.00230139
0.00176815
0.00200878
0.00168812
0.00196358
0.00172189
0.00197854
0.0017913
0.00201168
0.00188749
0.00208367
0.00200687
0.00219012
0.00218589
0.00237685
0.00245788
0.00267727
0.00287331
0.00316835
0.00351392
0.00393463
0.0044576
0.00504532
0.00570322
0.00623977
0.00651829
0.00564354
9.50365e-05
0.00222256
0.00211598
0.00229953
0.00177368
0.00200506
0.00169348
0.00195861
0.00172848
0.00197246
0.00179902
0.00200441
0.00189614
0.00207501
0.00201591
0.00217999
0.0021944
0.00236577
0.00246385
0.00266515
0.00287292
0.00315413
0.00349859
0.00391874
0.00441381
0.00499563
0.00558151
0.00605021
0.00583272
0.00505703
0.000108465
0.00222175
0.00212084
0.00229738
0.00178004
0.00200073
0.00169953
0.00195281
0.00173588
0.0019655
0.00180757
0.00199626
0.00190551
0.00206559
0.00202525
0.00216936
0.00220274
0.0023547
0.00246841
0.00265332
0.0028709
0.00313884
0.00348693
0.0038832
0.00437718
0.00490859
0.00546656
0.0058801
0.00590975
0.00465386
0.000122808
0.00222032
0.00212619
0.00229488
0.00178733
0.00199574
0.00170633
0.00194612
0.0017441
0.00195763
0.00181693
0.00198723
0.00191544
0.0020556
0.00203452
0.00215843
0.00221018
0.00234432
0.00247085
0.00264264
0.00286599
0.00312351
0.00347349
0.00384242
0.00433468
0.00480957
0.00533677
0.00566733
0.00573926
0.00391834
0.000138224
0.00221808
0.00213206
0.00229201
0.00179564
0.00199003
0.0017139
0.00193852
0.00175309
0.00194891
0.00182696
0.00197761
0.00192547
0.00204581
0.002043
0.0021492
0.00221528
0.00233619
0.00246932
0.00263499
0.0028545
0.00311229
0.00344077
0.00381888
0.00426354
0.00472846
0.00516024
0.00540087
0.00521869
0.00367272
0.000154917
0.00221478
0.0021385
0.00228869
0.00180508
0.00198355
0.00172224
0.00192996
0.00176281
0.00193938
0.00183751
0.00196765
0.00193527
0.00203654
0.00205041
0.00214151
0.00221799
0.00233
0.00246496
0.00262848
0.00284056
0.00310243
0.00340435
0.00378609
0.00418338
0.00463695
0.00497777
0.00509189
0.00435765
0.00316748
0.000173113
0.00221012
0.0021455
0.00228488
0.00181574
0.00197628
0.00173136
0.00192042
0.0017732
0.00192904
0.00184841
0.00195737
0.00194455
0.00202701
0.00205641
0.00213449
0.002219
0.0023234
0.00246072
0.00261769
0.0028302
0.00307602
0.00338239
0.00372604
0.00411126
0.0044953
0.00481391
0.00493462
0.00460139
0.00282196
0.000192998
0.00220383
0.00215305
0.0022806
0.00182764
0.00196831
0.00174109
0.0019102
0.00178383
0.00191867
0.00185896
0.00194956
0.00195292
0.00202049
0.00206023
0.00212954
0.00221769
0.00231784
0.00245436
0.00260666
0.00282001
0.00304934
0.00335701
0.00365676
0.00402707
0.00433805
0.00462677
0.00469651
0.00446883
0.00199004
0.000215039
0.00219546
0.00216123
0.00227569
0.00184096
0.00195947
0.00175154
0.00189895
0.00179487
0.00190741
0.00186909
0.00193786
0.00196096
0.00201357
0.0020627
0.00212526
0.00221416
0.0023132
0.00244326
0.00259657
0.00279733
0.00303195
0.00330912
0.00360442
0.00391884
0.00419577
0.00436991
0.00433205
0.00389791
0.0020777
0.000239228
0.00218477
0.00216984
0.00227039
0.0018555
0.00195027
0.00176211
0.00188782
0.00180526
0.0018986
0.00187738
0.00193362
0.00196388
0.00201297
0.00205861
0.00212868
0.00220351
0.00231862
0.00242354
0.00259949
0.00275744
0.0030177
0.0032329
0.0035498
0.00379318
0.00405889
0.00409919
0.00387746
0.00282638
0.00172333
0.000266272
0.00217117
0.00217896
0.00226452
0.00187146
0.00194054
0.00177288
0.00187611
0.00181527
0.00188907
0.00188591
0.0019268
0.00196818
0.00200773
0.00206103
0.00212026
0.00220676
0.00230173
0.00242814
0.00256645
0.00275741
0.00295546
0.00320878
0.00344228
0.0036817
0.00382747
0.00389057
0.00376836
0.0034259
0.00145628
0.000296395
0.00215432
0.00218843
0.00225814
0.00188875
0.00193048
0.00178358
0.00186392
0.00182385
0.00187943
0.0018924
0.00192144
0.00197112
0.00200311
0.00206152
0.00211318
0.00220385
0.00228913
0.00241952
0.00254917
0.00273611
0.00291967
0.00315679
0.00335359
0.00355027
0.00363532
0.00362308
0.00342662
0.00306479
0.00118933
0.00032967
0.00213398
0.00219789
0.00225171
0.00190681
0.00192163
0.00179332
0.0018557
0.00182864
0.0018782
0.00189163
0.00192619
0.00196436
0.00201219
0.00204815
0.002126
0.00218159
0.00230317
0.00237451
0.00255414
0.00266926
0.00290632
0.00304047
0.00328742
0.00339033
0.00349989
0.00329843
0.00282483
0.00159888
0.000903603
0.000366799
0.00210962
0.00220729
0.00224505
0.00192574
0.00191287
0.0018029
0.00184569
0.0018336
0.00187251
0.00189478
0.001921
0.0019691
0.00200244
0.00205958
0.00210611
0.00219893
0.00227165
0.00239709
0.0024968
0.00266677
0.00281995
0.00301057
0.00314686
0.00324693
0.00323326
0.00312428
0.00289115
0.00250564
0.000645443
0.000408476
0.00208077
0.00221643
0.00223811
0.00194537
0.00190336
0.00181131
0.00183756
0.0018363
0.00187029
0.00189517
0.00192021
0.00196744
0.00199523
0.00205585
0.00209518
0.00219396
0.0022476
0.00239072
0.0024619
0.0026597
0.0027521
0.00295817
0.00301393
0.00309403
0.0029711
0.00280359
0.00251963
0.0022538
0.000459615
0.000453657
0.00204857
0.00222421
0.00223325
0.00196428
0.00190082
0.00181422
0.00183622
0.00183008
0.0018788
0.00188342
0.0019375
0.00194856
0.0020279
0.00202008
0.00213092
0.00214374
0.0022862
0.00232045
0.00248401
0.00255653
0.00273655
0.00282649
0.00294504
0.00291379
0.00277199
0.0023156
0.00158755
0.000600123
0.000970024
0.000503597
0.00201137
0.00223128
0.00222751
0.0019866
0.00189583
0.00182129
0.00182861
0.00183276
0.00187352
0.00188767
0.00193056
0.00195196
0.00201338
0.00202067
0.00211522
0.00214085
0.0022641
0.0023056
0.0024514
0.00252228
0.00268044
0.00274352
0.00283505
0.00277755
0.00260811
0.00208292
0.00125186
0.000179686
0.000620946
0.000559758
0.0019665
0.00223605
0.00221909
0.00200548
0.00189411
0.00182643
0.0018219
0.00183637
0.00186628
0.00189649
0.0019195
0.00196541
0.00199602
0.00204113
0.00208677
0.00215788
0.00222262
0.00230984
0.0023921
0.00249452
0.00258724
0.00266459
0.00267994
0.00264954
0.00248524
0.00222027
0.00179196
0.00119854
-0.000941133
0.000619083
0.00193076
0.00223324
0.00222703
0.00201972
0.00189712
0.00182772
0.00181754
0.00183617
0.00186204
0.00189926
0.00191378
0.00196888
0.00198653
0.00204488
0.00206899
0.00215574
0.00219413
0.00229199
0.00234303
0.00244332
0.00250162
0.00256253
0.00255851
0.00251173
0.00239129
0.00219332
0.0017005
0.000603276
-0.00314499
0.0006863
0.00187672
0.00223226
0.00220222
0.0020495
0.00190269
0.00183415
0.00181448
0.00183572
0.00186078
0.00189539
0.00191541
0.00195977
0.00199069
0.00202989
0.0020779
0.002134
0.00219257
0.00225336
0.00231403
0.00237633
0.00242586
0.00246673
0.00244747
0.00236005
0.00214775
0.00177246
0.00122345
0.000426777
-0.00218229
0.000751549
0.00184458
0.00221296
0.0022254
0.00204282
0.00192195
0.00182332
0.00182985
0.00181628
0.0018786
0.00187096
0.00193871
0.00193093
0.00201667
0.00199257
0.00208924
0.00209166
0.00218131
0.00219496
0.00226731
0.00228998
0.00234418
0.00236105
0.00234838
0.00220125
0.00196412
0.00125423
5.87108e-05
-0.00159299
-0.00233164
0.000830528
0.00179433
0.00219879
0.00219066
0.0020855
0.00192063
0.00184589
0.00181405
0.00183374
0.00185858
0.0018909
0.00191578
0.00195419
0.00199031
0.00201929
0.00205928
0.00210098
0.00213635
0.00216984
0.00219497
0.00222279
0.00223681
0.00223429
0.00217633
0.00205086
0.00182363
0.00148339
0.00100225
6.12475e-05
-0.003184
0.00090122
0.00176675
0.0021668
0.00220374
0.00208336
0.00193937
0.00184844
0.00181674
0.00182894
0.00185425
0.00188566
0.00190937
0.00194696
0.00198008
0.00200609
0.00204203
0.00207958
0.00211202
0.00213189
0.00214208
0.0021437
0.00212052
0.00208823
0.00200664
0.00190474
0.00173526
0.00146468
0.000749861
-0.000938971
-0.00531852
0.000980325
0.00173497
0.00212937
0.00219048
0.00210047
0.00195268
0.00186137
0.00182071
0.00183381
0.00185089
0.00188404
0.00190419
0.00194166
0.00197634
0.00200089
0.00203551
0.00206525
0.00207598
0.00208323
0.00206971
0.00205179
0.00200588
0.0019424
0.00182917
0.00168773
0.00148302
0.00117583
0.00043832
-0.00129189
-0.00572242
0.00106836
0.00171548
0.00208788
0.00215977
0.00211238
0.00196107
0.00187476
0.00182599
0.00183469
0.00184555
0.00187669
0.00189629
0.00193301
0.00196608
0.00198785
0.00201577
0.002038
0.00204477
0.00203712
0.00200052
0.00196027
0.00188974
0.00180294
0.00164308
0.00139939
0.00102952
0.000576442
1.56726e-05
-0.000896004
-0.00415001
0.00110792
0.00173363
0.00204253
0.00217927
0.00207635
0.00201318
0.00187032
0.00186415
0.00181629
0.00186065
0.00185229
0.00189891
0.00191224
0.00195846
0.00196599
0.00198997
0.00200526
0.00200296
0.00198562
0.00193764
0.00185868
0.00177111
0.00163656
0.0014863
0.00118069
0.000644672
-0.000436569
-0.00192973
-0.00381713
-0.00354454
0.0012346
0.00168581
0.00201005
0.00211739
0.00210635
0.00199672
0.00191117
0.00185711
0.00183698
0.00184115
0.00185754
0.00188091
0.00191079
0.00194384
0.00195732
0.00196339
0.00197398
0.00195397
0.00192152
0.00185373
0.00176732
0.0016281
0.00144067
0.00121333
0.000979651
0.000701416
0.000370789
-2.24384e-05
-0.000542168
-0.00344109
0.00125112
0.00173181
0.00196827
0.00213433
0.00206999
0.00204121
0.00190073
0.00188498
0.00182446
0.00184628
0.00184198
0.00187171
0.00189346
0.00192133
0.00193287
0.00193392
0.00193996
0.00191443
0.00185256
0.00178741
0.00168339
0.00157008
0.00140294
0.00120142
0.000801467
6.0261e-05
-0.0011971
-0.00282707
-0.00474653
-0.0041426
0.00137458
0.00168548
0.001946
0.00207183
0.00209099
0.00202747
0.00195238
0.00188919
0.00184909
0.00183163
0.0018381
0.00185197
0.00187799
0.00190044
0.0019063
0.00189655
0.001886
0.00184925
0.00179158
0.00171326
0.00161518
0.00148249
0.00129837
0.00104029
0.000722213
0.000382127
5.08867e-05
-0.000392843
-0.00162271
-0.00566701
0.00144276
0.00168599
0.00192761
0.00204812
0.0020861
0.00203001
0.0019665
0.00188907
0.00185377
0.00182831
0.00182841
0.00183623
0.00185497
0.00188005
0.00187748
0.00186505
0.00184675
0.00179743
0.00173954
0.00164415
0.00154162
0.00138734
0.001205
0.000970472
0.000702656
0.000323653
-0.000274355
-0.00141655
-0.00365351
-0.00868041
0.00146626
0.00172776
0.0019127
0.0020216
0.00206001
0.00203955
0.00198034
0.00191618
0.00186781
0.00183966
0.00182365
0.00181973
0.00183141
0.0018373
0.00183381
0.00181397
0.00179212
0.0017475
0.00168086
0.00158158
0.00146232
0.001297
0.00109075
0.000829984
0.00051391
7.56301e-05
-0.000613862
-0.00183684
-0.0041724
-0.00919733
0.00160838
0.00168478
0.0018959
0.00199218
0.00204843
0.00202051
0.00197848
0.00191585
0.00187311
0.00184169
0.00181596
0.00180929
0.00180635
0.00181343
0.00180343
0.00177114
0.0017505
0.00169579
0.00162686
0.00151623
0.00139268
0.00120933
0.00096174
0.000598084
0.000143696
-0.000389107
-0.000961413
-0.00173941
-0.00328262
-0.00791752
0.00154134
0.00182643
0.00187004
0.00200933
0.00198878
0.00204877
0.00194863
0.00195008
0.00186142
0.00185828
0.00179661
0.00178866
0.00176836
0.00176445
0.00175243
0.00172705
0.00171144
0.00165986
0.00156735
0.00146587
0.00131109
0.00114666
0.000864059
0.000474456
-0.000253842
-0.00136488
-0.0028991
-0.00475439
-0.00682581
-0.00589911
0.00171191
0.00176388
0.00187639
0.00194996
0.00198953
0.00200574
0.00198452
0.00193898
0.00190156
0.0018599
0.00180497
0.00175815
0.00173127
0.00171047
0.00169366
0.00166483
0.0016386
0.00158669
0.00150875
0.00139443
0.00125069
0.00105764
0.000791039
0.000433955
9.29547e-06
-0.000466398
-0.00104755
-0.00199511
-0.00406421
-0.00930311
0.0017176
0.00178295
0.00189731
0.00195278
0.00198649
0.00198691
0.00197003
0.00192988
0.00188846
0.00184554
0.00179121
0.00175143
0.00170673
0.00167555
0.00164562
0.00160149
0.00157698
0.00152073
0.00145159
0.00133097
0.00119453
0.00100469
0.000776181
0.000457583
3.86913e-05
-0.000633665
-0.00169657
-0.00349826
-0.00656454
-0.0124276
0.00174142
0.0018626
0.0019128
0.00194116
0.00195788
0.00195937
0.00195176
0.00192337
0.00189886
0.00185109
0.00179508
0.00172338
0.00165706
0.00161701
0.00157664
0.00154865
0.00151187
0.00146704
0.00138598
0.00127656
0.00113226
0.000956676
0.000720038
0.000396899
-7.73538e-05
-0.000774284
-0.00184986
-0.0035951
-0.00670886
-0.0127303
0.00183121
0.00186777
0.0019076
0.00192595
0.00193542
0.0019415
0.00192977
0.00191516
0.00189233
0.00184967
0.00176915
0.00168109
0.00161555
0.00156736
0.00153109
0.00149441
0.00145712
0.00140465
0.00132448
0.00121126
0.00106759
0.000886166
0.000643309
0.00030134
-0.000189603
-0.000912602
-0.0020353
-0.00390927
-0.00726135
-0.0136037
0.00183868
0.00190338
0.00194118
0.00194367
0.00193016
0.0019188
0.00190656
0.00188874
0.00186682
0.00182126
0.00174745
0.00166317
0.00158967
0.00153336
0.00148463
0.0014399
0.00139457
0.00133821
0.00125512
0.00113965
0.000991589
0.000803148
0.000548889
0.000191777
-0.00032208
-0.0010873
-0.00229458
-0.00430393
-0.0078178
-0.0143069
0.00189349
0.00194352
0.00195965
0.00194548
0.00191918
0.00189733
0.00187719
0.00185303
0.00182467
0.00178302
0.00171898
0.00164075
0.00156502
0.00149938
0.00143929
0.00138387
0.00132975
0.00126748
0.00118055
0.00106109
0.0009065
0.000708765
0.000442045
6.65336e-05
-0.000479301
-0.0012987
-0.00258293
-0.00468504
-0.00829287
-0.0148317
0.00193397
0.0019695
0.00197298
0.00195094
0.00191532
0.00188202
0.00185088
0.00181835
0.00178427
0.00174324
0.00168494
0.00161234
0.00153726
0.00146603
0.0013965
0.00132961
0.00126516
0.00119469
0.00110186
0.000976497
0.000813727
0.000604553
0.000322754
-7.50857e-05
-0.000654791
-0.00152149
-0.00286287
-0.00502601
-0.00867804
-0.0152339
0.00197352
0.00199853
0.00199222
0.00195976
0.00191312
0.00186715
0.0018245
0.00178289
0.00174248
0.0016997
0.0016441
0.00157578
0.00150256
0.00142887
0.00135273
0.00127583
0.00120024
0.00111983
0.00101882
0.000885443
0.000712538
0.000489809
0.000190504
-0.000230153
-0.000839405
-0.00174219
-0.00312347
-0.00532206
-0.00900193
-0.0155782
0.00201404
0.00202959
0.00200948
0.00196464
0.00190693
0.00185041
0.00179768
0.00174696
0.00169974
0.00165373
0.00159947
0.00153371
0.00146205
0.00138711
0.00130648
0.00122121
0.00113469
0.00104281
0.000931861
0.000788601
0.000604073
0.000366505
4.96271e-05
-0.000391559
-0.0010244
-0.00195374
-0.00336047
-0.00557839
-0.00926942
-0.0158518
0.00205234
0.00205821
0.00202678
0.00196969
0.00190035
0.00183279
0.0017707
0.00171218
0.00165837
0.00160821
0.00155314
0.00148836
0.00141693
0.0013405
0.0012561
0.00116398
0.00106725
0.000963606
0.000841385
0.000687019
0.00048996
0.000237557
-9.58708e-05
-0.000554585
-0.00120582
-0.00215397
-0.00357666
-0.00580713
-0.00950807
-0.0161014
0.00208869
0.00208614
0.00204386
0.00197501
0.00189362
0.00181434
0.00174262
0.00167674
0.00161687
0.00156201
0.00150499
0.00143969
0.00136738
0.0012888
0.00120101
0.00110274
0.000996692
0.000881599
0.000747603
0.000581422
0.000371731
0.00010515
-0.000243212
-0.000716718
-0.00138236
-0.00234342
-0.00377761
-0.00601763
-0.00972544
-0.0163266
0.00212271
0.00211314
0.00206067
0.00198084
0.00188703
0.00179516
0.00171327
0.00164011
0.00157466
0.00151501
0.0014552
0.00138833
0.00131428
0.00123281
0.00114125
0.00103731
0.000922713
0.000796723
0.000651098
0.000473188
0.000251363
-2.83575e-05
-0.000390072
-0.00087614
-0.00155249
-0.00252296
-0.00396615
-0.00621473
-0.00992875
-0.016531
0.00215184
0.00213779
0.00207862
0.00198758
0.00188071
0.00177582
0.00168297
0.00160242
0.00153137
0.0014672
0.00140384
0.00133476
0.00125817
0.00117334
0.00107726
0.000967793
0.000845263
0.000709124
0.000552347
0.000363371
0.00013012
-0.000161442
-0.000534991
-0.00103152
-0.00171605
-0.00269323
-0.00414306
-0.00639865
-0.0101213
-0.0167344
0.00217993
0.0021612
0.00209438
0.00199258
0.00187376
0.00175659
0.00165276
0.00156418
0.00148729
0.00141833
0.00135101
0.00127903
0.00119935
0.00111062
0.00100965
0.000894403
0.000764425
0.000618994
0.000451874
0.000252583
8.95433e-06
-0.000293208
-0.000677118
-0.0011821
-0.00187301
-0.00285495
-0.00430884
-0.00656833
-0.0102962
-0.016918
0.00220839
0.00218345
0.00210655
0.00199485
0.00186574
0.00173744
0.00162297
0.00152564
0.00144253
0.00136832
0.00129675
0.00122113
0.00113797
0.00104489
0.00093893
0.000817666
0.000680611
0.000526532
0.000350084
0.000141368
-0.000111496
-0.000422911
-0.000815309
-0.00132731
-0.00202322
-0.00300859
-0.00446442
-0.0067239
-0.0104469
-0.0170591
0.00223318
0.00220329
0.00211834
0.00199666
0.00185706
0.00171807
0.00159319
0.00148698
0.00139696
0.00131731
0.00124111
0.00116138
0.0010742
0.000976616
0.000865502
0.000738305
0.000594354
0.000432332
0.000247398
3.03077e-05
-0.000230597
-0.000549608
-0.000948901
-0.00146661
-0.0021665
-0.003154
-0.00461043
-0.0068695
-0.0105928
-0.0172104
0.00225442
0.00222082
0.00212953
0.00199811
0.00184771
0.00169805
0.00156291
0.00144779
0.00135066
0.0012654
0.00118424
0.00110004
0.0010084
0.000906143
0.000789828
0.000656905
0.000506378
0.000337068
0.000144482
-7.99567e-05
-0.000347515
-0.000672583
-0.00107746
-0.00159976
-0.00230278
-0.00329182
-0.00474884
-0.00700833
-0.0107328
-0.0173517
0.00227447
0.00223686
0.00213832
0.00199805
0.00183746
0.00167732
0.00153215
0.00140809
0.00130378
0.00121266
0.00112636
0.00103732
0.000940991
0.000833846
0.000712456
0.000574013
0.000417395
0.000241385
4.20104e-05
-0.000188703
-0.000461659
-0.000791551
-0.00120078
-0.00172672
-0.00243217
-0.00342249
-0.0048801
-0.00714011
-0.0108647
-0.0174827
0.00229164
0.00225047
0.00214567
0.00199681
0.00182628
0.00165593
0.00150096
0.0013681
0.00125641
0.0011593
0.0010677
0.000973645
0.000872403
0.000760316
0.000633902
0.000490241
0.000328
0.000145995
-5.93929e-05
-0.000295328
-0.000572639
-0.000906269
-0.00131882
-0.00184745
-0.00255466
-0.00354568
-0.00500339
-0.00726351
-0.0109886
-0.0176066
0.00230592
0.00226171
0.00215134
0.00199427
0.0018141
0.00163383
0.0014694
0.00132797
0.00120883
0.0011055
0.00100849
0.000909341
0.000803073
0.000686042
0.000554696
0.000406148
0.000238778
5.14495e-05
-0.000159029
-0.000399304
-0.00068014
-0.00101662
-0.0014316
-0.00196208
-0.00267025
-0.00366112
-0.00511783
-0.00737683
-0.0111023
-0.017725
0.00231888
0.00227118
0.0021546
0.00198965
0.00180049
0.00161093
0.00143757
0.00128785
0.00116124
0.00105148
0.000948968
0.000844687
0.00073342
0.000611462
0.000475396
0.000322272
0.000150342
-4.16133e-05
-0.000256359
-0.000500267
-0.000783918
-0.00112256
-0.00153917
-0.00207075
-0.00277912
-0.00376908
-0.00522376
-0.00747993
-0.0112022
-0.0178227
0.00232968
0.00227841
0.00215573
0.00198317
0.00178555
0.00158732
0.00140552
0.00124777
0.00111378
0.00099748
0.000889393
0.000780018
0.000663825
0.000537082
0.000396517
0.000239178
6.3178e-05
-0.000132648
-0.000350947
-0.000597848
-0.000883714
-0.0012239
-0.00164151
-0.00217355
-0.00288159
-0.00387017
-0.00532234
-0.00757529
-0.0112948
-0.0179161
0.00233773
0.00228336
0.00215528
0.00197571
0.00177006
0.00156338
0.0013733
0.00120771
0.0010665
0.000943727
0.000830035
0.00071564
0.000594679
0.000463354
0.000318549
0.000157339
-2.2136e-05
-0.000221199
-0.00044245
-0.000691782
-0.000979374
-0.00132059
-0.00173871
-0.00227076
-0.00297823
-0.00396556
-0.00541587
-0.00766663
-0.0113838
-0.018004
0.00234258
0.00228593
0.00215344
0.00196758
0.00175427
0.0015393
0.00134105
0.00116783
0.00101958
0.00089048
0.000771216
0.000651939
0.000526408
0.000390766
0.000242012
7.73607e-05
-0.000105084
-0.000306842
-0.000530535
-0.000781845
-0.00107076
-0.00141265
-0.00183092
-0.00236274
-0.00306962
-0.00405596
-0.00550513
-0.00775524
-0.0114737
-0.0180979
0.00234517
0.00228637
0.00214991
0.00195827
0.00173787
0.00151506
0.00130901
0.00112842
0.000973344
0.00083807
0.000713364
0.000589347
0.000459503
0.000319844
0.000167478
-1.50219e-07
-0.000185122
-0.000389117
-0.000614827
-0.000867738
-0.00115768
-0.00149998
-0.00191822
-0.00244972
-0.0031561
-0.00414178
-0.00559026
-0.00783989
-0.0115584
-0.018183
0.00234621
0.00228511
0.00214445
0.00194732
0.0017205
0.0014907
0.00127739
0.00108976
0.000928119
0.000786873
0.000656913
0.000528345
0.000394487
0.000251188
9.56453e-05
-7.4639e-05
-0.000261787
-0.000467661
-0.000695007
-0.000949219
-0.00123996
-0.00158253
-0.00200063
-0.00253177
-0.00323764
-0.00422269
-0.00567043
-0.00791923
-0.0116367
-0.0182605
0.0023453
0.002282
0.00213759
0.00193549
0.00170277
0.00146645
0.00124639
0.00105216
0.000884296
0.000737347
0.000602376
0.000469525
0.000331973
0.000185403
2.69876e-05
-0.000145698
-0.000334766
-0.000542206
-0.000770863
-0.00102611
-0.00131747
-0.0016602
-0.00207805
-0.00260869
-0.00331389
-0.00429811
-0.00574477
-0.00799224
-0.0117084
-0.0183317
0.00234265
0.00227743
0.00212971
0.00192314
0.00168498
0.00144258
0.00121624
0.00101587
0.000842197
0.000689909
0.00055023
0.000413376
0.000272433
0.000122904
-3.80988e-05
-0.000212943
-0.000403706
-0.000612452
-0.000842148
-0.00109818
-0.00138999
-0.00173274
-0.00215023
-0.00268019
-0.00338451
-0.00436766
-0.00581305
-0.0080592
-0.0117743
-0.0183976
0.00233867
0.00227178
0.00212104
0.00191039
0.0016673
0.00141936
0.00118724
0.000981183
0.00080217
0.000644979
0.000500947
0.000360395
0.000216352
6.41702e-05
-9.91304e-05
-0.000275894
-0.000468152
-0.000678004
-0.000908505
-0.00116509
-0.00145716
-0.00179981
-0.00221682
-0.002746
-0.0034493
-0.0044313
-0.0058755
-0.00812053
-0.0118349
-0.0184584
0.00233377
0.00226532
0.00211188
0.00189756
0.00165004
0.00139713
0.00115977
0.000948528
0.000764654
0.000603024
0.000455044
0.00031111
0.000164252
9.71001e-06
-0.000155608
-0.000334045
-0.000527603
-0.000738374
-0.000969481
-0.00122642
-0.00151859
-0.00186106
-0.00227757
-0.00280597
-0.0035083
-0.00448923
-0.00593234
-0.00817642
-0.0118902
-0.0185141
0.00232832
0.00225853
0.00210265
0.00188503
0.00163357
0.00137627
0.00113425
0.000918368
0.00073013
0.000564553
0.000413061
0.000266092
0.000116704
-3.99247e-05
-0.000206982
-0.000386852
-0.00058151
-0.000793046
-0.00102462
-0.00128178
-0.00157397
-0.00191624
-0.00233233
-0.00286009
-0.00356162
-0.00454165
-0.00598382
-0.008227
-0.0119402
-0.0185642
0.00232283
0.00225185
0.00209383
0.0018733
0.00161838
0.00135722
0.00111112
0.000891209
0.000699208
0.000530228
0.000375704
0.00022609
7.44695e-05
-8.39898e-05
-0.000252546
-0.000433636
-0.000629237
-0.000841428
-0.00107339
-0.00133072
-0.0016229
-0.001965
-0.00238077
-0.00290806
-0.00360902
-0.00458843
-0.00602999
-0.00827258
-0.0119852
-0.0186093
0.00231766
0.00224571
0.0020859
0.00186289
0.00160498
0.00134048
0.00109095
0.000867685
0.000672585
0.000500837
0.000343843
0.000192052
3.85733e-05
-0.000121418
-0.000291219
-0.000473311
-0.000669687
-0.000882417
-0.00111469
-0.00137213
-0.00166428
-0.00200624
-0.00242176
-0.00294873
-0.00364934
-0.00462842
-0.00606976
-0.00831236
-0.0120254
-0.0186501
0.00231353
0.00224053
0.0020791
0.00185403
0.00159367
0.00132648
0.00107429
0.000848551
0.000651223
0.000477488
0.000318702
0.0001653
1.04105e-05
-0.000150749
-0.000321495
-0.00050433
-0.000701269
-0.000914373
-0.00114683
-0.0014043
-0.00169636
-0.00203814
-0.00245342
-0.00298012
-0.00368046
-0.00465934
-0.00610062
-0.00834335
-0.0120567
-0.0186818
0.00231175
0.00223804
0.00207434
0.00184609
0.00158246
0.00131257
0.00105815
0.000830535
0.000631505
0.000456131
0.000295724
0.000140712
-1.57082e-05
-0.000178268
-0.00035024
-0.000534127
-0.000731942
-0.000945751
-0.00117873
-0.00143655
-0.00172877
-0.00207053
-0.0024856
-0.00301189
-0.0037116
-0.00468966
-0.00613006
-0.00837217
-0.0120859
-0.0187144
0.0142448
0.0139464
0.0124584
0.0102879
0.00749329
0.00420417
0.000585087
-0.00300216
-0.00583932
-0.00728233
-0.00734812
-0.00658979
-0.00558115
-0.00464871
-0.00392052
-0.00341559
-0.00309931
-0.00291969
-0.00282795
-0.00278628
-0.0027685
-0.00275821
-0.00274626
-0.00272862
-0.0027045
-0.00267495
-0.00264186
-0.00260727
-0.0025729
-0.00254005
-0.0025095
-0.00248161
-0.00245641
-0.00243377
-0.00241348
-0.00239534
-0.00237917
-0.00236483
-0.00235222
-0.00234125
-0.00233185
-0.00232391
-0.00231734
-0.00231201
-0.00230784
-0.0023047
-0.00230251
-0.0023012
-0.00230071
-0.00230099
-0.002302
-0.00230371
-0.0023061
-0.00230915
-0.00231283
-0.00231714
-0.00232204
-0.00232751
-0.00233354
-0.00234009
-0.00234716
-0.00235471
-0.00236274
-0.00237122
-0.00238014
-0.00238948
-0.00239923
-0.00240938
-0.0024199
-0.00243079
-0.00244205
-0.00245365
-0.00246559
-0.00247786
-0.00249045
-0.00250335
-0.00251655
-0.00253005
-0.00254383
-0.00255789
-0.00257221
-0.00258678
-0.0026016
-0.00261666
-0.00263195
-0.00264747
-0.0026632
-0.00267914
-0.00269529
-0.00271163
-0.00272816
-0.00274489
-0.00276179
-0.00277887
-0.00279613
-0.00281356
-0.00283116
-0.00284892
-0.00286685
-0.00288494
-0.0029032
-0.00292161
-0.00294019
-0.00295893
-0.00297783
-0.00299688
-0.00301609
-0.00303546
-0.00305497
-0.00307464
-0.00309445
-0.00311441
-0.0031345
-0.00315474
-0.00317511
-0.00319561
-0.00321624
-0.003237
-0.00325787
-0.00327887
-0.00329997
-0.00332119
-0.00334252
-0.00336395
-0.00338549
-0.00340714
-0.00342889
-0.00345073
-0.00347268
-0.00349473
-0.00351688
-0.00353913
-0.0035615
-0.00358395
-0.00360652
-0.00362919
-0.00365198
-0.00367486
-0.00369786
-0.00372095
-0.00374415
-0.00376744
-0.00379084
-0.00381433
-0.00383791
-0.00386159
-0.00388534
-0.00390917
-0.00393305
-0.00395701
-0.00398104
-0.00400514
-0.0040293
-0.00405353
-0.00407781
-0.00410215
-0.00412655
-0.00415102
-0.00417558
-0.00420022
-0.00422494
-0.00424974
-0.00427463
-0.0042996
-0.00432469
-0.00434987
-0.00437514
-0.00440048
-0.0044259
-0.00445138
-0.00447696
-0.00450261
-0.00452833
-0.00455409
-0.00457989
-0.00460573
-0.00463163
-0.00465759
-0.0046836
-0.00470964
-0.00473573
-0.00476186
-0.00478807
-0.00481436
-0.00484073
-0.00486716
-0.00489366
-0.00492023
-0.00494692