/*--------------------------------*- C++ -*----------------------------------*\
| =========                 |                                                 |
| \\      /  F ield         | OpenFOAM: The Open Source CFD Toolbox           |
|  \\    /   O peration     | Version:  v2006                                 |
|   \\  /    A nd           | Website:  www.openfoam.com                      |
|    \\/     M anipulation  |                                                 |
\*---------------------------------------------------------------------------*/
FoamFile
{
    version     2.0;
    format      ascii;
    class       surfaceScalarField;
    location    "1.3";
    object      phi;
}
// * * * * * * * * * * * * * * * * * * * * * * * * * * * * * * * * * * * * * //

dimensions      [0 3 -1 0 0 0 0];
oriented        oriented;


internalField   nonuniform List<scalar> 
52390
(
1.17004e-06
-3.18459e-07
1.1701e-06
2.79694e-07
1.17315e-06
-2.60351e-07
1.17318e-06
2.16814e-07
1.17667e-06
-2.0136e-07
1.1769e-06
1.70817e-07
1.18033e-06
-1.68324e-07
1.18025e-06
1.29023e-07
1.18345e-06
-1.40063e-07
1.18306e-06
9.70341e-08
1.18606e-06
-1.11075e-07
1.18548e-06
7.4639e-08
1.18832e-06
-8.76322e-08
1.18757e-06
5.71215e-08
1.19029e-06
-7.05467e-08
1.1893e-06
4.27495e-08
1.19193e-06
-5.79368e-08
1.19061e-06
3.10651e-08
1.1932e-06
-4.78023e-08
1.19145e-06
2.21557e-08
1.19406e-06
-3.91208e-08
1.19174e-06
1.55798e-08
1.19446e-06
-3.12347e-08
1.19138e-06
1.08495e-08
1.19428e-06
-2.3146e-08
1.19036e-06
7.18269e-09
1.19292e-06
-1.17871e-08
1.18668e-06
4.35194e-09
1.18221e-06
1.86194e-08
2.36423e-08
1.15372e-06
1.2271e-06
-3.21296e-07
1.22769e-06
2.79105e-07
1.23155e-06
-2.64212e-07
1.23213e-06
2.16232e-07
1.23596e-06
-2.05192e-07
1.23654e-06
1.70244e-07
1.23993e-06
-1.71722e-07
1.24024e-06
1.28717e-07
1.24313e-06
-1.42957e-07
1.24327e-06
9.6895e-08
1.24566e-06
-1.13463e-07
1.24586e-06
7.44426e-08
1.24771e-06
-8.94849e-08
1.24809e-06
5.67408e-08
1.24934e-06
-7.17999e-08
1.24998e-06
4.2113e-08
1.25051e-06
-5.84649e-08
1.25152e-06
3.00485e-08
1.25115e-06
-4.74267e-08
1.25273e-06
2.05748e-08
1.25119e-06
-3.75789e-08
1.25356e-06
1.32033e-08
1.25053e-06
-2.81971e-08
1.25392e-06
7.45335e-09
1.24904e-06
-1.82675e-08
1.25348e-06
2.74989e-09
1.24643e-06
-4.74051e-09
1.24975e-06
1.03703e-09
1.23787e-06
3.04992e-08
3.89356e-08
1.22257e-06
1.28549e-06
-3.24e-07
1.28905e-06
2.75545e-07
1.2918e-06
-2.66965e-07
1.29494e-06
2.13093e-07
1.29709e-06
-2.07345e-07
1.30002e-06
1.67317e-07
1.30129e-06
-1.72988e-07
1.30395e-06
1.2605e-07
1.30436e-06
-1.43367e-07
1.30699e-06
9.42659e-08
1.30659e-06
-1.13066e-07
1.30941e-06
7.16228e-08
1.30821e-06
-8.82801e-08
1.31133e-06
5.36223e-08
1.3093e-06
-6.97714e-08
1.31274e-06
3.86692e-08
1.30987e-06
-5.55931e-08
1.31365e-06
2.62711e-08
1.30996e-06
-4.37339e-08
1.31401e-06
1.65158e-08
1.30957e-06
-3.31348e-08
1.31375e-06
9.02841e-09
1.30874e-06
-2.31941e-08
1.31266e-06
3.53936e-09
1.30752e-06
-1.31322e-08
1.31036e-06
-8.72312e-11
1.306e-06
-3.78155e-10
1.30358e-06
3.45039e-09
1.3007e-06
3.33846e-08
6.14314e-08
1.2782e-06
1.34586e-06
-3.25755e-07
1.35198e-06
2.69422e-07
1.35314e-06
-2.68128e-07
1.35864e-06
2.07592e-07
1.35888e-06
-2.07579e-07
1.36387e-06
1.62325e-07
1.36296e-06
-1.72079e-07
1.36752e-06
1.21493e-07
1.36569e-06
-1.41536e-07
1.37007e-06
8.98838e-08
1.36755e-06
-1.10549e-07
1.37187e-06
6.73095e-08
1.36878e-06
-8.51938e-08
1.37301e-06
4.93883e-08
1.36948e-06
-6.62338e-08
1.37356e-06
3.45832e-08
1.3697e-06
-5.17333e-08
1.37356e-06
2.24106e-08
1.36954e-06
-3.97154e-08
1.37306e-06
1.29973e-08
1.36904e-06
-2.91093e-08
1.37204e-06
6.02395e-09
1.3682e-06
-1.93499e-08
1.37037e-06
1.36766e-09
1.3671e-06
-9.86193e-09
1.36754e-06
-5.33093e-10
1.36581e-06
1.35981e-09
1.3606e-06
8.66026e-09
1.36011e-06
3.38737e-08
8.463e-08
1.33691e-06
1.40862e-06
-3.26018e-07
1.4161e-06
2.61938e-07
1.41562e-06
-2.67644e-07
1.42241e-06
2.00804e-07
1.4211e-06
-2.06277e-07
1.42707e-06
1.56356e-07
1.42472e-06
-1.69724e-07
1.42998e-06
1.16228e-07
1.42697e-06
-1.3852e-07
1.4318e-06
8.50475e-08
1.42851e-06
-1.0726e-07
1.43294e-06
6.28809e-08
1.42952e-06
-8.17666e-08
1.4335e-06
4.54007e-08
1.43003e-06
-6.27606e-08
1.43356e-06
3.10525e-08
1.43011e-06
-4.82863e-08
1.43321e-06
1.93163e-08
1.42986e-06
-3.63686e-08
1.43252e-06
1.03409e-08
1.4293e-06
-2.589e-08
1.43145e-06
3.87023e-09
1.42844e-06
-1.6336e-08
1.42982e-06
-1.32133e-11
1.42732e-06
-7.368e-09
1.4271e-06
-3.03554e-10
1.42554e-06
2.91378e-09
1.42112e-06
1.30801e-08
1.41824e-06
3.67554e-08
1.1056e-07
1.39231e-06
1.47435e-06
-3.24693e-07
1.48189e-06
2.544e-07
1.48008e-06
-2.65839e-07
1.48693e-06
1.93955e-07
1.48475e-06
-2.0409e-07
1.49061e-06
1.50492e-07
1.48766e-06
-1.66777e-07
1.49268e-06
1.11214e-07
1.4894e-06
-1.35245e-07
1.49389e-06
8.05632e-08
1.49068e-06
-1.04056e-07
1.49466e-06
5.89006e-08
1.49156e-06
-7.86584e-08
1.49504e-06
4.1913e-08
1.492e-06
-5.9717e-08
1.49505e-06
2.7998e-08
1.49205e-06
-4.52791e-08
1.49475e-06
1.66114e-08
1.49179e-06
-3.34077e-08
1.49417e-06
7.96186e-09
1.49126e-06
-2.29765e-08
1.49322e-06
1.90196e-09
1.49044e-06
-1.35496e-08
1.49172e-06
-1.29401e-09
1.48919e-06
-4.83479e-09
1.48941e-06
-5.31828e-10
1.48649e-06
5.83431e-09
1.48431e-06
1.52663e-08
1.48322e-06
3.7845e-08
6.41529e-08
1.52962e-06
1.54356e-06
-3.22035e-07
1.55031e-06
2.47647e-07
1.54761e-06
-2.6314e-07
1.55376e-06
1.87811e-07
1.55117e-06
-2.01504e-07
1.55641e-06
1.45255e-07
1.55333e-06
-1.63702e-07
1.55778e-06
1.06765e-07
1.55458e-06
-1.3204e-07
1.5586e-06
7.65448e-08
1.55559e-06
-1.01053e-07
1.55923e-06
5.52652e-08
1.55635e-06
-7.57784e-08
1.55962e-06
3.8643e-08
1.55676e-06
-5.68542e-08
1.55971e-06
2.50411e-08
1.55682e-06
-4.23823e-08
1.55951e-06
1.39165e-08
1.55661e-06
-3.05064e-08
1.55901e-06
5.56045e-09
1.55616e-06
-2.01213e-08
1.5581e-06
-4.22049e-11
1.55544e-06
-1.08866e-08
1.55654e-06
-2.39679e-09
1.55441e-06
-2.7021e-09
1.55372e-06
1.52134e-10
1.55257e-06
6.98667e-09
1.54768e-06
2.01564e-08
1.54342e-06
4.21028e-08
9.50577e-08
1.51252e-06
1.6165e-06
-3.1841e-07
1.62229e-06
2.41862e-07
1.61899e-06
-2.59838e-07
1.62428e-06
1.82512e-07
1.62146e-06
-1.98677e-07
1.6261e-06
1.4061e-07
1.62294e-06
-1.60545e-07
1.62698e-06
1.02731e-07
1.62375e-06
-1.2881e-07
1.62752e-06
7.27765e-08
1.62449e-06
-9.80289e-08
1.62804e-06
5.17198e-08
1.62511e-06
-7.2849e-08
1.62841e-06
3.53416e-08
1.62547e-06
-5.39105e-08
1.62852e-06
2.19866e-08
1.62554e-06
-3.93971e-08
1.62833e-06
1.11222e-08
1.62537e-06
-2.75486e-08
1.62781e-06
3.12165e-09
1.62499e-06
-1.73005e-08
1.62684e-06
-1.89031e-09
1.62433e-06
-8.37949e-09
1.62516e-06
-3.22369e-09
1.62336e-06
-9.01444e-10
1.622e-06
1.50529e-09
1.62156e-06
7.43007e-09
1.61646e-06
2.52568e-08
1.6117e-06
4.68641e-08
1.31636e-07
1.57512e-06
1.69327e-06
-3.14107e-07
1.69837e-06
2.36762e-07
1.69457e-06
-2.56036e-07
1.69928e-06
1.77797e-07
1.69615e-06
-1.95548e-07
1.70051e-06
1.36258e-07
1.69713e-06
-1.57168e-07
1.70104e-06
9.88246e-08
1.69759e-06
-1.2536e-07
1.70134e-06
6.90261e-08
1.69807e-06
-9.47637e-08
1.7017e-06
4.80934e-08
1.69853e-06
-6.96794e-08
1.70197e-06
3.19017e-08
1.69881e-06
-5.07533e-08
1.70201e-06
1.87913e-08
1.69886e-06
-3.62537e-08
1.70174e-06
8.24146e-09
1.69871e-06
-2.45154e-08
1.70114e-06
6.95462e-10
1.69834e-06
-1.4503e-08
1.70008e-06
-3.63204e-09
1.6976e-06
-5.89584e-09
1.69856e-06
-4.18974e-09
1.69572e-06
1.94551e-09
1.69645e-06
7.69256e-10
1.69127e-06
1.26107e-08
1.69578e-06
2.07465e-08
1.69685e-06
4.57949e-08
8.21746e-08
1.74631e-06
1.7739e-06
-3.09287e-07
1.77876e-06
2.31907e-07
1.77445e-06
-2.51725e-07
1.77894e-06
1.73298e-07
1.7754e-06
-1.92005e-07
1.77977e-06
1.31885e-07
1.77605e-06
-1.5344e-07
1.78006e-06
9.48064e-08
1.77626e-06
-1.21556e-07
1.78015e-06
6.5133e-08
1.77653e-06
-9.11397e-08
1.78033e-06
4.42961e-08
1.77684e-06
-6.61887e-08
1.78045e-06
2.82915e-08
1.77704e-06
-4.73473e-08
1.78036e-06
1.54719e-08
1.77707e-06
-3.29623e-08
1.77997e-06
5.33801e-09
1.77693e-06
-2.14738e-08
1.77921e-06
-1.58707e-09
1.77658e-06
-1.18664e-08
1.77801e-06
-5.06312e-09
1.77581e-06
-3.70156e-09
1.77632e-06
-4.69194e-09
1.77372e-06
4.54451e-09
1.77429e-06
1.98506e-10
1.76817e-06
1.87279e-08
1.77458e-06
1.43385e-08
1.77622e-06
4.4155e-08
2.63822e-08
1.83201e-06
1.85847e-06
-3.04012e-07
1.86347e-06
2.26916e-07
1.8586e-06
-2.46858e-07
1.86319e-06
1.68706e-07
1.85915e-06
-1.87962e-07
1.86377e-06
1.27263e-07
1.85961e-06
-1.49283e-07
1.86391e-06
9.05135e-08
1.85968e-06
-1.17334e-07
1.86382e-06
6.09929e-08
1.8598e-06
-8.71162e-08
1.86382e-06
4.02769e-08
1.86e-06
-6.23648e-08
1.86378e-06
2.45061e-08
1.86015e-06
-4.37143e-08
1.86355e-06
1.20663e-08
1.86017e-06
-2.95812e-08
1.86302e-06
2.48943e-09
1.86006e-06
-1.85135e-08
1.86209e-06
-3.61988e-09
1.85974e-06
-9.51041e-09
1.8607e-06
-6.02818e-09
1.85901e-06
-2.0068e-09
1.85862e-06
-4.30267e-09
1.85742e-06
5.7442e-09
1.85531e-06
2.30517e-09
1.85362e-06
2.04168e-08
1.84861e-06
1.9356e-08
1.83883e-06
5.39349e-08
6.22721e-08
1.80294e-06
1.94713e-06
-2.98299e-07
1.95252e-06
2.21526e-07
1.94704e-06
-2.41386e-07
1.95194e-06
1.63811e-07
1.94734e-06
-1.83364e-07
1.95236e-06
1.22245e-07
1.94773e-06
-1.44653e-07
1.9524e-06
8.58415e-08
1.94774e-06
-1.1267e-07
1.95219e-06
5.65365e-08
1.94777e-06
-8.26915e-08
1.95204e-06
3.60057e-08
1.94791e-06
-5.82317e-08
1.95186e-06
2.05576e-08
1.94805e-06
-3.99096e-08
1.95149e-06
8.62992e-09
1.94811e-06
-2.62019e-08
1.9508e-06
-2.07078e-10
1.94804e-06
-1.57541e-08
1.94972e-06
-5.29578e-09
1.94775e-06
-7.5431e-09
1.94816e-06
-6.43995e-09
1.94704e-06
-8.77223e-10
1.94584e-06
-3.10586e-09
1.94547e-06
6.11719e-09
1.94184e-06
5.92621e-09
1.94281e-06
1.94547e-08
1.93164e-06
3.05193e-08
1.92702e-06
5.85542e-08
9.35101e-08
1.89579e-06
2.04003e-06
-2.92144e-07
2.04599e-06
2.15573e-07
2.03986e-06
-2.35257e-07
2.0452e-06
1.58474e-07
2.04e-06
-1.78171e-07
2.04551e-06
1.16737e-07
2.04038e-06
-1.3952e-07
2.04549e-06
8.07266e-08
2.04038e-06
-1.07556e-07
2.04519e-06
5.17255e-08
2.04038e-06
-7.78858e-08
2.04491e-06
3.14796e-08
2.04052e-06
-5.38398e-08
2.04459e-06
1.6486e-08
2.0407e-06
-3.60186e-08
2.04408e-06
5.2483e-09
2.04083e-06
-2.29508e-08
2.04324e-06
-2.62287e-09
2.04083e-06
-1.33435e-08
2.04203e-06
-6.49428e-09
2.04056e-06
-6.07471e-09
2.04038e-06
-6.25079e-09
2.0397e-06
-2.01877e-10
2.03818e-06
-1.58544e-09
2.03741e-06
6.88189e-09
2.03424e-06
9.10479e-09
2.03314e-06
2.0552e-08
2.02609e-06
3.75692e-08
2.01459e-06
7.00504e-08
1.26768e-07
1.98134e-06
2.13739e-06
-2.85538e-07
2.14402e-06
2.08949e-07
2.13719e-06
-2.28424e-07
2.14306e-06
1.52603e-07
2.13723e-06
-1.72348e-07
2.14329e-06
1.1068e-07
2.13763e-06
-1.33865e-07
2.14323e-06
7.51349e-08
2.13767e-06
-1.01995e-07
2.14284e-06
4.6551e-08
2.13769e-06
-7.27354e-08
2.14245e-06
2.67233e-08
2.13786e-06
-4.92587e-08
2.14199e-06
1.2357e-08
2.13812e-06
-3.21443e-08
2.14134e-06
2.02362e-09
2.13834e-06
-1.99473e-08
2.14037e-06
-4.65554e-09
2.13841e-06
-1.13823e-08
2.13908e-06
-7.15905e-09
2.13809e-06
-5.08481e-09
2.13757e-06
-5.73369e-09
2.13667e-06
6.93407e-10
2.13583e-06
-7.43024e-10
2.13359e-06
9.1195e-09
2.13173e-06
1.097e-08
2.12609e-06
2.61866e-08
2.13207e-06
3.15957e-08
2.15571e-06
4.64091e-08
5.1873e-08
2.2306e-06
2.23942e-06
-2.78466e-07
2.24679e-06
2.01577e-07
2.2392e-06
-2.20834e-07
2.24567e-06
1.46128e-07
2.23919e-06
-1.65863e-07
2.24584e-06
1.04035e-07
2.23964e-06
-1.27672e-07
2.24572e-06
6.90571e-08
2.23973e-06
-9.60049e-08
2.24525e-06
4.10343e-08
2.23981e-06
-6.72987e-08
2.24474e-06
2.17987e-08
2.24007e-06
-4.45893e-08
2.24414e-06
8.28051e-09
2.24043e-06
-2.84328e-08
2.24334e-06
-8.85829e-10
2.24076e-06
-1.73696e-08
2.24225e-06
-6.13809e-09
2.2409e-06
-1.00362e-08
2.24088e-06
-7.13541e-09
2.24056e-06
-4.76627e-09
2.23922e-06
-4.3946e-09
2.23931e-06
6.02259e-10
2.23698e-06
1.58205e-09
2.23635e-06
9.74988e-09
2.23294e-06
1.43866e-08
2.23053e-06
2.85955e-08
2.22348e-06
3.864e-08
2.20745e-06
6.24476e-08
8.27278e-08
2.17659e-06
2.34632e-06
-2.7091e-07
2.3545e-06
1.93395e-07
2.34611e-06
-2.12442e-07
2.35324e-06
1.39001e-07
2.34606e-06
-1.58689e-07
2.35332e-06
9.67802e-08
2.34659e-06
-1.20941e-07
2.35314e-06
6.25033e-08
2.34675e-06
-8.96193e-08
2.35257e-06
3.52213e-08
2.34692e-06
-6.16519e-08
2.35192e-06
1.67938e-08
2.34729e-06
-3.99517e-08
2.35118e-06
4.38805e-09
2.34779e-06
-2.50408e-08
2.35022e-06
-3.32056e-09
2.34823e-06
-1.53748e-08
2.34904e-06
-6.94699e-09
2.34839e-06
-9.38833e-09
2.34764e-06
-6.38858e-09
2.34801e-06
-5.13491e-09
2.34571e-06
-2.09702e-09
2.3471e-06
-7.89003e-10
2.34285e-06
5.83431e-09
2.34455e-06
8.05088e-09
2.33865e-06
2.02859e-08
2.33953e-06
2.77158e-08
2.32471e-06
5.34635e-08
2.31517e-06
7.1989e-08
1.06977e-07
2.29092e-06
2.45834e-06
-2.62857e-07
2.46737e-06
1.84364e-07
2.45814e-06
-2.03208e-07
2.46595e-06
1.31195e-07
2.45807e-06
-1.50816e-07
2.46593e-06
8.89199e-08
2.45869e-06
-1.13693e-07
2.46568e-06
5.55141e-08
2.45896e-06
-8.29013e-08
2.46498e-06
2.91953e-08
2.45924e-06
-5.59055e-08
2.4642e-06
1.18323e-08
2.45973e-06
-3.54864e-08
2.46331e-06
8.1529e-10
2.46036e-06
-2.20911e-08
2.46223e-06
-5.19925e-09
2.46085e-06
-1.39878e-08
2.46106e-06
-7.16332e-09
2.46086e-06
-9.17929e-09
2.45989e-06
-5.42511e-09
2.46006e-06
-5.30747e-09
2.45855e-06
-5.82457e-10
2.45829e-06
-5.28748e-10
2.45612e-06
7.99889e-09
2.45464e-06
9.53813e-09
2.45147e-06
2.34516e-08
2.44893e-06
3.02589e-08
2.44079e-06
6.16048e-08
2.42261e-06
9.01646e-08
1.41178e-07
2.38841e-06
2.57574e-06
-2.543e-07
2.58565e-06
1.74454e-07
2.57555e-06
-1.93113e-07
2.58405e-06
1.22701e-07
2.57548e-06
-1.42251e-07
2.58392e-06
8.04804e-08
2.5762e-06
-1.05974e-07
2.58356e-06
4.81567e-08
2.5766e-06
-7.59436e-08
2.58272e-06
2.30723e-08
2.57702e-06
-5.01992e-08
2.58179e-06
7.06419e-09
2.57765e-06
-3.13485e-08
2.58076e-06
-2.29634e-09
2.57836e-06
-1.96968e-08
2.57964e-06
-6.47095e-09
2.57883e-06
-1.31774e-08
2.57859e-06
-6.9241e-09
2.57857e-06
-9.16185e-09
2.57778e-06
-4.63393e-09
2.5771e-06
-4.62806e-09
2.57726e-06
-7.42945e-10
2.57435e-06
2.38307e-09
2.57544e-06
6.91117e-09
2.56997e-06
1.50017e-08
2.56922e-06
2.41991e-08
2.56133e-06
3.81484e-08
2.57834e-06
4.45991e-08
2.61413e-06
5.43772e-08
5.43404e-08
2.70097e-06
2.69876e-06
-2.45235e-07
2.70957e-06
1.63645e-07
2.69861e-06
-1.82148e-07
2.70778e-06
1.13527e-07
2.69855e-06
-1.3302e-07
2.70752e-06
7.15109e-08
2.6994e-06
-9.78575e-08
2.70703e-06
4.05302e-08
2.69996e-06
-6.88773e-08
2.70602e-06
1.70124e-08
2.70054e-06
-4.47185e-08
2.70491e-06
2.69083e-09
2.70132e-06
-2.77583e-08
2.70375e-06
-4.72678e-09
2.7021e-06
-1.80467e-08
2.70263e-06
-6.99422e-09
2.70252e-06
-1.30694e-08
2.70162e-06
-6.01982e-09
2.70221e-06
-9.75386e-09
2.70064e-06
-3.07079e-09
2.70114e-06
-5.12864e-09
2.69929e-06
1.11523e-09
2.69899e-06
2.68219e-09
2.69669e-06
9.20518e-09
2.69478e-06
1.69203e-08
2.69186e-06
2.71137e-08
2.68835e-06
4.16635e-08
2.67928e-06
5.36655e-08
2.65812e-06
7.55343e-08
8.91852e-08
2.62328e-06
2.82769e-06
-2.35655e-07
2.83941e-06
1.51927e-07
2.82757e-06
-1.70313e-07
2.83741e-06
1.03691e-07
2.82754e-06
-1.23155e-07
2.83698e-06
6.20706e-08
2.82855e-06
-8.94216e-08
2.83634e-06
3.27353e-08
2.82929e-06
-6.1826e-08
2.83516e-06
1.11406e-08
2.83e-06
-3.95532e-08
2.83393e-06
-1.2383e-09
2.83091e-06
-2.47426e-08
2.83267e-06
-6.48908e-09
2.83171e-06
-1.70856e-08
2.8316e-06
-6.87749e-09
2.83201e-06
-1.34839e-08
2.83065e-06
-4.66351e-09
2.83174e-06
-1.08396e-08
2.82928e-06
-6.10513e-10
2.83121e-06
-7.06266e-09
2.82687e-06
5.46179e-09
2.8301e-06
-5.48616e-10
2.82357e-06
1.57366e-08
2.82712e-06
1.3369e-08
2.81942e-06
3.48111e-08
2.8205e-06
4.05831e-08
2.7999e-06
7.42685e-08
2.79046e-06
8.49692e-08
1.13948e-07
2.7657e-06
2.96281e-06
-2.25569e-07
2.97542e-06
1.39319e-07
2.96275e-06
-1.57647e-07
2.97319e-06
9.32547e-08
2.96277e-06
-1.12737e-07
2.97256e-06
5.22778e-08
2.96395e-06
-8.08128e-08
2.97173e-06
2.49562e-08
2.96493e-06
-5.5018e-08
2.97031e-06
5.75422e-09
2.96591e-06
-3.51539e-08
2.96882e-06
-4.14636e-09
2.96692e-06
-2.28369e-08
2.96765e-06
-7.21909e-09
2.96753e-06
-1.69696e-08
2.96685e-06
-6.19834e-09
2.96746e-06
-1.40962e-08
2.96627e-06
-3.4688e-09
2.9669e-06
-1.14674e-08
2.96531e-06
9.71832e-10
2.9655e-06
-7.2516e-09
2.96361e-06
7.35294e-09
2.9634e-06
-3.4232e-10
2.96019e-06
1.89504e-08
2.95854e-06
1.50195e-08
2.956e-06
3.73527e-08
2.95328e-06
4.33035e-08
2.94226e-06
8.52868e-08
2.91678e-06
1.10448e-07
1.51868e-07
2.87886e-06
3.10444e-06
-2.14999e-07
3.1179e-06
1.25858e-07
3.10446e-06
-1.44215e-07
3.11542e-06
8.22983e-08
3.10455e-06
-1.01862e-07
3.11457e-06
4.22536e-08
3.10592e-06
-7.21612e-08
3.11355e-06
1.73221e-08
3.10709e-06
-4.85539e-08
3.11199e-06
8.49113e-10
3.1081e-06
-3.12576e-08
3.11059e-06
-6.6402e-09
3.10888e-06
-2.11307e-08
3.10984e-06
-8.17651e-09
3.10881e-06
-1.59381e-08
3.10988e-06
-7.27138e-09
3.10775e-06
-1.19645e-08
3.11034e-06
-6.05344e-09
3.10574e-06
-6.86685e-09
3.11085e-06
-4.14249e-09
3.10286e-06
7.36332e-10
3.11059e-06
-3.73014e-10
3.09996e-06
1.02845e-08
3.10798e-06
1.09299e-08
3.0957e-06
2.73006e-08
3.09912e-06
3.39357e-08
3.08854e-06
5.38772e-08
3.12138e-06
5.24477e-08
3.16747e-06
6.43602e-08
5.97522e-08
3.25959e-06
3.25289e-06
-2.03979e-07
3.26714e-06
1.11606e-07
3.25305e-06
-1.30124e-07
3.26441e-06
7.09435e-08
3.25321e-06
-9.06701e-08
3.26329e-06
3.21781e-08
3.2548e-06
-6.36716e-08
3.26205e-06
1.00753e-08
3.25624e-06
-4.27417e-08
3.26023e-06
-3.14967e-09
3.25747e-06
-2.84894e-08
3.25869e-06
-7.8685e-09
3.25836e-06
-2.07951e-08
3.2578e-06
-7.6152e-09
3.25858e-06
-1.6722e-08
3.25725e-06
-5.93938e-09
3.25851e-06
-1.32217e-08
3.25627e-06
-3.81439e-09
3.25838e-06
-8.98165e-09
3.2545e-06
-2.58652e-10
3.25784e-06
-2.60921e-09
3.25177e-06
5.70134e-09
3.25551e-06
6.543e-09
3.24833e-06
1.81075e-08
3.25224e-06
2.33937e-08
3.24602e-06
4.01596e-08
3.24749e-06
5.24016e-08
3.22677e-06
7.31709e-08
3.20321e-06
8.79194e-08
1.01589e-07
3.16137e-06
3.40849e-06
-1.9254e-07
3.42346e-06
9.66398e-08
3.40884e-06
-1.15507e-07
3.42045e-06
5.93373e-08
3.4091e-06
-7.93227e-08
3.41902e-06
2.22622e-08
3.41092e-06
-5.5579e-08
3.41751e-06
3.48667e-09
3.41269e-06
-3.79211e-08
3.41539e-06
-5.84507e-09
3.41415e-06
-2.72492e-08
3.41377e-06
-7.49101e-09
3.41498e-06
-2.20068e-08
3.41291e-06
-5.54283e-09
3.41522e-06
-1.90346e-08
3.41221e-06
-2.92602e-09
3.41539e-06
-1.64e-08
3.41103e-06
5.37764e-10
3.41505e-06
-1.29955e-08
3.40943e-06
5.36248e-09
3.41442e-06
-7.60043e-09
3.40638e-06
1.3739e-08
3.41243e-06
4.94325e-10
3.40314e-06
2.73984e-08
3.40817e-06
1.83572e-08
3.4019e-06
4.64349e-08
3.40669e-06
4.76135e-08
3.38229e-06
9.75639e-08
3.35528e-06
1.14938e-07
1.46069e-07
3.31079e-06
3.57162e-06
-1.80747e-07
3.58717e-06
8.1091e-08
3.57221e-06
-1.00552e-07
3.58389e-06
4.76609e-08
3.57254e-06
-6.79741e-08
3.58216e-06
1.26408e-08
3.57446e-06
-4.78747e-08
3.58066e-06
-2.71882e-09
3.57606e-06
-3.3323e-08
3.57899e-06
-8.76786e-09
3.57677e-06
-2.50352e-08
3.57841e-06
-9.12642e-09
3.5764e-06
-1.99939e-08
3.57889e-06
-8.03636e-09
3.57507e-06
-1.52125e-08
3.57993e-06
-7.78479e-09
3.57286e-06
-9.33563e-09
3.58148e-06
-8.08435e-09
3.56993e-06
-1.44264e-09
3.58213e-06
-6.83806e-09
3.56677e-06
7.76083e-09
3.58233e-06
-1.81908e-09
3.56364e-06
1.91826e-08
3.58002e-06
1.10144e-08
3.5597e-06
3.86769e-08
3.56993e-06
3.62073e-08
3.55579e-06
6.17571e-08
3.60426e-06
4.90887e-08
3.65634e-06
6.28594e-08
5.81911e-08
3.74422e-06
3.74264e-06
-1.68684e-07
3.75861e-06
6.5126e-08
3.74358e-06
-8.55241e-08
3.75507e-06
3.61669e-08
3.74397e-06
-5.68728e-08
3.75296e-06
3.6557e-09
3.74606e-06
-4.0979e-08
3.75129e-06
-7.94529e-09
3.74785e-06
-2.98818e-08
3.74944e-06
-1.03605e-08
3.74896e-06
-2.45601e-08
3.74816e-06
-8.32032e-09
3.7498e-06
-2.1635e-08
3.74678e-06
-5.01365e-09
3.75077e-06
-1.92097e-08
3.74518e-06
-2.18904e-09
3.75144e-06
-1.55971e-08
3.74347e-06
-1.10336e-10
3.75169e-06
-9.67018e-09
3.74191e-06
2.94221e-09
3.75001e-06
-3.41184e-10
3.73935e-06
8.84479e-09
3.74685e-06
1.16849e-08
3.73722e-06
2.06467e-08
3.74503e-06
3.08639e-08
3.73818e-06
4.30544e-08
3.7379e-06
6.20416e-08
3.71459e-06
7.23919e-08
3.68417e-06
9.32871e-08
1.07411e-07
3.63495e-06
3.92193e-06
-1.56421e-07
3.93811e-06
4.89452e-08
3.92335e-06
-7.07692e-08
3.93433e-06
2.51858e-08
3.92382e-06
-4.63575e-08
3.93173e-06
-4.26057e-09
3.92593e-06
-3.51778e-08
3.93012e-06
-1.2133e-08
3.92757e-06
-2.73352e-08
3.92851e-06
-1.13004e-08
3.92858e-06
-2.46309e-08
3.92714e-06
-6.87707e-09
3.92994e-06
-2.44386e-08
3.92507e-06
-1.40227e-10
3.93143e-06
-2.55692e-08
3.92277e-06
6.46917e-09
3.9331e-06
-2.59289e-08
3.91989e-06
1.31038e-08
3.93449e-06
-2.42715e-08
3.91649e-06
2.09423e-08
3.93502e-06
-1.88728e-08
3.91324e-06
3.06316e-08
3.93379e-06
-8.8656e-09
3.91155e-06
4.28848e-08
3.93397e-06
8.4378e-09
3.91559e-06
6.14342e-08
3.93647e-06
4.11701e-08
3.8907e-06
1.18158e-07
3.85813e-06
1.25856e-07
1.55189e-07
3.81035e-06
4.10989e-06
-1.44061e-07
4.12606e-06
3.27725e-08
4.1119e-06
-5.66094e-08
4.1222e-06
1.48921e-08
4.11212e-06
-3.62776e-08
4.11953e-06
-1.16752e-08
4.11364e-06
-2.9286e-08
4.11895e-06
-1.74385e-08
4.11371e-06
-2.20971e-08
4.11944e-06
-1.70302e-08
4.11233e-06
-1.75251e-08
4.12069e-06
-1.52354e-08
4.11028e-06
-1.40302e-08
4.12238e-06
-1.22381e-08
4.10817e-06
-1.13628e-08
4.12357e-06
-8.93163e-09
4.10627e-06
-8.62081e-09
4.12414e-06
-4.77397e-09
4.10455e-06
-4.68071e-09
4.12368e-06
1.81315e-09
4.10305e-06
1.75564e-09
4.12124e-06
1.2447e-08
4.10093e-06
1.14431e-08
4.1169e-06
2.69156e-08
4.09821e-06
2.71307e-08
4.11631e-06
4.3328e-08
4.10777e-06
4.97131e-08
4.15847e-06
6.7452e-08
4.21054e-06
7.37866e-08
8.51018e-08
4.28063e-06
4.30701e-06
-1.31767e-07
4.3228e-06
1.6984e-08
4.31013e-06
-4.39455e-08
4.3188e-06
6.22655e-09
4.3101e-06
-2.75803e-08
4.31553e-06
-1.71068e-08
4.31137e-06
-2.51271e-08
4.31505e-06
-2.11126e-08
4.31131e-06
-1.83554e-08
4.31576e-06
-2.14865e-08
4.31002e-06
-1.17784e-08
4.31694e-06
-2.2161e-08
4.30815e-06
-5.23906e-09
4.31865e-06
-2.2741e-08
4.30572e-06
1.57261e-09
4.3201e-06
-2.33107e-08
4.30357e-06
7.90201e-09
4.32099e-06
-2.21897e-08
4.30149e-06
1.48194e-08
4.32074e-06
-1.7437e-08
4.29941e-06
2.309e-08
4.31952e-06
-7.6709e-09
4.29697e-06
3.3999e-08
4.31519e-06
8.6939e-09
4.29323e-06
4.90908e-08
4.31242e-06
2.41376e-08
4.31068e-06
5.14483e-08
4.36159e-06
1.65427e-08
4.40989e-06
2.54876e-08
4.13905e-09
4.49086e-06
4.51375e-06
-1.1974e-07
4.52862e-06
2.11294e-09
4.51925e-06
-3.45785e-08
4.52478e-06
7.01646e-10
4.51782e-06
-2.06289e-08
4.5208e-06
-2.00802e-08
4.51878e-06
-2.31095e-08
4.51952e-06
-2.18557e-08
4.51969e-06
-1.85222e-08
4.51903e-06
-2.08219e-08
4.52084e-06
-1.35914e-08
4.51786e-06
-1.91814e-08
4.52177e-06
-9.15095e-09
4.51636e-06
-1.73284e-08
4.52252e-06
-4.58983e-09
4.5151e-06
-1.58879e-08
4.52271e-06
2.90682e-10
4.51393e-06
-1.34129e-08
4.52197e-06
6.77845e-09
4.51211e-06
-7.57625e-09
4.51932e-06
1.58861e-08
4.50846e-06
3.19037e-09
4.51323e-06
2.92246e-08
4.50458e-06
1.73428e-08
4.51229e-06
4.13777e-08
4.50508e-06
3.13512e-08
4.50873e-06
4.78015e-08
4.4802e-06
4.5071e-08
4.44256e-06
6.31307e-08
6.18087e-08
4.38489e-06
4.73033e-06
-1.07952e-07
4.7446e-06
-1.21624e-08
4.73621e-06
-2.61893e-08
4.74143e-06
-4.5136e-09
4.73485e-06
-1.40458e-08
4.73665e-06
-2.1885e-08
4.73547e-06
-2.19302e-08
4.73482e-06
-2.12044e-08
4.73748e-06
-2.11783e-08
4.73356e-06
-1.69049e-08
4.73935e-06
-1.93807e-08
4.7316e-06
-1.14338e-08
4.74092e-06
-1.84725e-08
4.7293e-06
-5.70987e-09
4.74247e-06
-1.77546e-08
4.72732e-06
-7.40995e-10
4.74321e-06
-1.55944e-08
4.72572e-06
4.06901e-09
4.74295e-06
-1.04448e-08
4.72439e-06
1.09863e-08
4.7415e-06
-1.22988e-09
4.72303e-06
2.16577e-08
4.74016e-06
1.20997e-08
4.72307e-06
3.44345e-08
4.73689e-06
2.75507e-08
4.71463e-06
5.36122e-08
4.71173e-06
5.07042e-08
4.68691e-06
6.98874e-08
4.68044e-06
6.96026e-08
9.4256e-08
4.64799e-06
4.95768e-06
-9.68343e-08
4.96944e-06
-2.39257e-08
4.96689e-06
-2.36323e-08
4.96576e-06
-3.38874e-09
4.96593e-06
-1.42105e-08
4.96112e-06
-1.70829e-08
4.96395e-06
-2.47581e-08
4.96042e-06
-1.76767e-08
4.96468e-06
-2.54288e-08
4.9604e-06
-1.26259e-08
4.96529e-06
-2.42713e-08
4.95997e-06
-6.11279e-09
4.96548e-06
-2.39842e-08
4.95924e-06
5.31269e-10
4.96496e-06
-2.34795e-08
4.95912e-06
5.09811e-09
4.96425e-06
-2.07265e-08
4.95806e-06
1.02636e-08
4.96181e-06
-1.41993e-08
4.95443e-06
1.8366e-08
4.95639e-06
-3.18085e-09
4.94972e-06
2.83276e-08
4.95108e-06
1.07356e-08
4.94735e-06
3.81623e-08
4.94775e-06
2.71562e-08
4.94954e-06
5.18216e-08
4.94739e-06
5.28504e-08
4.91888e-06
9.83956e-08
4.87539e-06
1.13091e-07
1.30799e-07
4.83885e-06
5.19561e-06
-8.61304e-08
5.20696e-06
-3.52733e-08
5.20241e-06
-1.90826e-08
5.20656e-06
-7.53544e-09
5.19796e-06
-5.61325e-09
5.2048e-06
-2.39225e-08
5.19538e-06
-1.53347e-08
5.20622e-06
-2.85245e-08
5.19354e-06
-1.27494e-08
5.20823e-06
-2.73144e-08
5.19146e-06
-7.50201e-09
5.20987e-06
-2.45169e-08
5.18924e-06
-3.36001e-09
5.21135e-06
-2.15747e-08
5.18755e-06
3.20554e-10
5.21155e-06
-1.8898e-08
5.18701e-06
3.80541e-09
5.21084e-06
-1.35609e-08
5.18687e-06
9.76833e-09
5.20962e-06
-4.3819e-09
5.18708e-06
1.93619e-08
5.20605e-06
9.34833e-09
5.18265e-06
3.41403e-08
5.19323e-06
2.75818e-08
5.17302e-06
4.73695e-08
5.18468e-06
4.01598e-08
5.19053e-06
4.70044e-08
5.26271e-06
2.62146e-08
5.34967e-06
2.61299e-08
2.68852e-08
5.45358e-06
5.44549e-06
-7.64272e-08
5.45208e-06
-4.18721e-08
5.45578e-06
-2.27815e-08
5.44977e-06
-1.51793e-09
5.45542e-06
-1.12695e-08
5.44599e-06
-1.4488e-08
5.45243e-06
-2.17764e-08
5.44565e-06
-2.17475e-08
5.45181e-06
-1.89035e-08
5.44673e-06
-2.22378e-08
5.45152e-06
-1.22957e-08
5.44748e-06
-2.04703e-08
5.45062e-06
-6.50602e-09
5.44667e-06
-1.76263e-08
5.44881e-06
-1.81267e-09
5.44454e-06
-1.46351e-08
5.44524e-06
3.10832e-09
5.4421e-06
-1.04155e-08
5.44272e-06
9.14884e-09
5.43902e-06
-6.88716e-10
5.43981e-06
1.85792e-08
5.43561e-06
1.35483e-08
5.43591e-06
3.38318e-08
5.43386e-06
2.96362e-08
5.43508e-06
4.61525e-08
5.43434e-06
4.0897e-08
5.4237e-06
5.76407e-08
5.39741e-06
5.25036e-08
5.3589e-06
6.46423e-08
6.47796e-08
5.32101e-06
5.70685e-06
-6.73194e-08
5.71274e-06
-4.77664e-08
5.71472e-06
-2.476e-08
5.71498e-06
-1.76998e-09
5.71478e-06
-1.1071e-08
5.71032e-06
-1.00355e-08
5.71078e-06
-2.22349e-08
5.707e-06
-1.79651e-08
5.71144e-06
-2.33476e-08
5.70744e-06
-1.8234e-08
5.71312e-06
-1.79773e-08
5.70693e-06
-1.42785e-08
5.71335e-06
-1.29256e-08
5.70572e-06
-9.99119e-09
5.71322e-06
-9.31984e-09
5.70482e-06
-6.23372e-09
5.71278e-06
-4.85269e-09
5.70268e-06
-3.13481e-10
5.70873e-06
3.09908e-09
5.69901e-06
9.03334e-09
5.7031e-06
1.4489e-08
5.69594e-06
2.07061e-08
5.70093e-06
2.88424e-08
5.69385e-06
3.67125e-08
5.69412e-06
4.58873e-08
5.68164e-06
5.33768e-08
5.67673e-06
6.25463e-08
5.65957e-06
6.96626e-08
5.64463e-06
7.95866e-08
8.7692e-08
5.62172e-06
5.98097e-06
-5.90986e-08
5.9815e-06
-4.82945e-08
5.98871e-06
-3.19675e-08
5.98734e-06
-3.97763e-10
5.98998e-06
-1.37121e-08
5.98146e-06
-1.51844e-09
5.98739e-06
-2.81701e-08
5.97867e-06
-9.23599e-09
5.98798e-06
-3.26661e-08
5.97888e-06
-9.13277e-09
5.98833e-06
-2.74216e-08
5.97913e-06
-5.07747e-09
5.98735e-06
-2.11518e-08
5.97892e-06
-1.56237e-09
5.98428e-06
-1.4676e-08
5.97666e-06
1.38263e-09
5.97917e-06
-7.35485e-09
5.97333e-06
5.5228e-09
5.9759e-06
5.23615e-10
5.97106e-06
1.38804e-08
5.97386e-06
1.16889e-08
5.96925e-06
2.53107e-08
5.97276e-06
2.53367e-08
5.96767e-06
4.17991e-08
5.96716e-06
4.64013e-08
5.95525e-06
6.52883e-08
5.94909e-06
6.87063e-08
5.93216e-06
8.65904e-08
5.91947e-06
9.22771e-08
1.02702e-07
5.90446e-06
6.26818e-06
-5.17913e-08
6.2655e-06
-4.56108e-08
6.27598e-06
-4.24497e-08
6.27052e-06
5.05797e-09
6.27848e-06
-2.16652e-08
6.26608e-06
1.0878e-08
6.27547e-06
-3.75608e-08
6.26435e-06
1.88157e-09
6.27554e-06
-4.38533e-08
6.2646e-06
1.80479e-09
6.27555e-06
-3.83707e-08
6.26471e-06
5.76083e-09
6.27467e-06
-3.11111e-08
6.26426e-06
8.85177e-09
6.27315e-06
-2.35626e-08
6.26254e-06
1.19884e-08
6.26958e-06
-1.43939e-08
6.25877e-06
1.63355e-08
6.26409e-06
-4.80486e-09
6.25659e-06
2.13808e-08
6.26002e-06
8.26518e-09
6.2536e-06
3.17243e-08
6.25555e-06
2.33922e-08
6.2532e-06
4.41464e-08
6.26075e-06
3.88485e-08
6.25668e-06
6.93587e-08
6.24774e-06
7.76517e-08
6.213e-06
1.21333e-07
6.16433e-06
1.40944e-07
1.29388e-07
6.13764e-06
6.56768e-06
-4.39978e-08
6.57721e-06
-5.51449e-08
6.56144e-06
-2.66843e-08
6.58057e-06
-1.40662e-08
6.56103e-06
-2.13079e-09
6.5817e-06
-9.79054e-09
6.55961e-06
-1.54661e-08
6.58148e-06
-1.99942e-08
6.5594e-06
-2.17647e-08
6.5815e-06
-2.02996e-08
6.5594e-06
-1.62753e-08
6.5808e-06
-1.5634e-08
6.5595e-06
-9.80951e-09
6.57969e-06
-1.1342e-08
6.55994e-06
-3.81016e-09
6.5783e-06
-6.37157e-09
6.56055e-06
3.35403e-09
6.57539e-06
1.49891e-09
6.55866e-06
1.19198e-08
6.5675e-06
1.25479e-08
6.55491e-06
2.08543e-08
6.56162e-06
2.50137e-08
6.54844e-06
3.65647e-08
6.55066e-06
4.19274e-08
6.54196e-06
4.75486e-08
6.56957e-06
4.17506e-08
6.60393e-06
4.32971e-08
6.68548e-06
3.97761e-08
6.78561e-06
4.08184e-08
5.8584e-08
6.85641e-06
6.88449e-06
-3.86973e-08
6.87787e-06
-4.85287e-08
6.89012e-06
-3.89284e-08
6.88184e-06
-5.79102e-09
6.89356e-06
-1.38448e-08
6.8826e-06
1.1698e-09
6.88964e-06
-2.25055e-08
6.88125e-06
-1.16119e-08
6.88723e-06
-2.77385e-08
6.88064e-06
-1.37094e-08
6.88698e-06
-2.26228e-08
6.88019e-06
-8.84067e-09
6.88587e-06
-1.54931e-08
6.87742e-06
-2.88702e-09
6.88177e-06
-8.15989e-09
6.8735e-06
1.90194e-09
6.87784e-06
-9.88335e-10
6.87094e-06
8.40196e-09
6.87446e-06
8.39823e-09
6.86944e-06
1.75646e-08
6.87211e-06
1.81857e-08
6.87251e-06
2.46121e-08
6.88608e-06
2.29927e-08
6.8987e-06
2.93147e-08
6.90998e-06
3.62676e-08
6.89654e-06
5.51893e-08
6.8693e-06
7.05382e-08
6.81685e-06
9.22269e-08
6.75076e-06
1.06902e-07
8.18004e-08
6.72755e-06
7.21238e-06
-3.1945e-08
7.22449e-06
-6.06369e-08
7.20192e-06
-1.63575e-08
7.2264e-06
-3.02663e-08
7.20235e-06
1.02002e-08
7.22812e-06
-2.46027e-08
7.2019e-06
3.71513e-09
7.2273e-06
-3.70127e-08
7.20309e-06
-3.51983e-09
7.22559e-06
-3.62111e-08
7.20424e-06
-1.27283e-09
7.22358e-06
-2.81864e-08
7.20517e-06
2.91509e-09
7.22201e-06
-1.9726e-08
7.20628e-06
7.57835e-09
7.21775e-06
-9.57236e-09
7.2025e-06
1.42593e-08
7.21033e-06
5.748e-10
7.1985e-06
2.02235e-08
7.20529e-06
1.07782e-08
7.19719e-06
2.62826e-08
7.20213e-06
1.96743e-08
7.19001e-06
3.51157e-08
7.19045e-06
2.88757e-08
7.19059e-06
3.61249e-08
7.22207e-06
2.37062e-08
7.2691e-06
2.35156e-08
7.35272e-06
8.60204e-09