/*--------------------------------*- C++ -*----------------------------------*\
| =========                 |                                                 |
| \\      /  F ield         | OpenFOAM: The Open Source CFD Toolbox           |
|  \\    /   O peration     | Version:  v2006                                 |
|   \\  /    A nd           | Website:  www.openfoam.com                      |
|    \\/     M anipulation  |                                                 |
\*---------------------------------------------------------------------------*/
FoamFile
{
    version     2.0;
    format      ascii;
    class       volVectorField;
    location    "1.3";
    object      U;
}
// * * * * * * * * * * * * * * * * * * * * * * * * * * * * * * * * * * * * * //

dimensions      [0 1 -1 0 0 0 0];


internalField   nonuniform List<vector> 
26400
(
(0.909043 -0.00476593 0)
(1.09188 0.00443643 0)
(0.913109 -0.00433603 0)
(1.09151 0.00384448 0)
(0.91931 -0.00373566 0)
(1.09207 0.00338912 0)
(0.925151 -0.00348376 0)
(1.09262 0.00285911 0)
(0.930144 -0.00323583 0)
(1.09313 0.00239983 0)
(0.934277 -0.00286212 0)
(1.09361 0.00206058 0)
(0.937811 -0.00251684 0)
(1.09408 0.00175928 0)
(0.940747 -0.00225777 0)
(1.09469 0.00146518 0)
(0.942922 -0.00206597 0)
(1.09549 0.00117827 0)
(0.944171 -0.00189742 0)
(1.09657 0.000919264 0)
(0.944325 -0.00172477 0)
(1.09804 0.000689651 0)
(0.943141 -0.00152365 0)
(1.09997 0.000484206 0)
(0.940311 -0.00124284 0)
(1.10234 0.000278537 0)
(0.93533 -0.000690427 0)
(1.10464 2.23178e-05 0)
(0.926869 0.00110831 0)
(1.1058 0.000365379 0)
(0.915934 -0.00480643 0)
(1.08605 0.004438 0)
(0.922507 -0.00440128 0)
(1.08565 0.00384479 0)
(0.930367 -0.00381154 0)
(1.08554 0.00338554 0)
(0.937565 -0.0035644 0)
(1.08504 0.00286023 0)
(0.94389 -0.00331749 0)
(1.08416 0.00240719 0)
(0.949506 -0.00294372 0)
(1.08288 0.00207138 0)
(0.954814 -0.00259842 0)
(1.08113 0.00177284 0)
(0.95997 -0.00233874 0)
(1.0789 0.00148355 0)
(0.965018 -0.0021444 0)
(1.07604 0.00120462 0)
(0.970087 -0.00197116 0)
(1.07234 0.000958516 0)
(0.975411 -0.00179039 0)
(1.06743 0.000749872 0)
(0.981276 -0.00157235 0)
(1.06083 0.000573292 0)
(0.988019 -0.00124717 0)
(1.05182 0.000381412 0)
(0.995839 -0.000567067 0)
(1.03914 0.000208757 0)
(1.00443 0.00201723 0)
(1.02015 0.00151392 0)
(0.928115 -0.00485293 0)
(1.07427 0.00441422 0)
(0.937566 -0.00446296 0)
(1.07358 0.00381986 0)
(0.947617 -0.00387571 0)
(1.07243 0.00335705 0)
(0.956508 -0.00362177 0)
(1.07037 0.00283388 0)
(0.964382 -0.00336403 0)
(1.06761 0.00237984 0)
(0.971568 -0.00297633 0)
(1.06422 0.00203551 0)
(0.978445 -0.00261193 0)
(1.06017 0.00172174 0)
(0.985125 -0.00232528 0)
(1.05556 0.00141035 0)
(0.991576 -0.00209167 0)
(1.05038 0.00109826 0)
(0.997757 -0.00186204 0)
(1.04472 0.000802428 0)
(1.00358 -0.00160131 0)
(1.03868 0.000524248 0)
(1.00881 -0.00128103 0)
(1.03242 0.000267215 0)
(1.01307 -0.000851177 0)
(1.02616 3.44336e-05 0)
(1.01569 -0.000145457 0)
(1.01996 5.09878e-05 0)
(1.01549 0.00216349 0)
(1.01423 0.00376037 0)
(0.943428 -0.0048861 0)
(1.05837 0.00433936 0)
(0.954348 -0.00449673 0)
(1.05719 0.00374414 0)
(0.965614 -0.00389754 0)
(1.0552 0.00327868 0)
(0.975174 -0.00362256 0)
(1.05205 0.00275251 0)
(0.983392 -0.0033419 0)
(1.04825 0.00228906 0)
(0.990653 -0.00292998 0)
(1.0441 0.00192925 0)
(0.997173 -0.00253796 0)
(1.03971 0.00159612 0)
(1.00294 -0.00222029 0)
(1.03532 0.00126404 0)
(1.00783 -0.00195324 0)
(1.03106 0.000931683 0)
(1.01177 -0.00169051 0)
(1.02715 0.000619828 0)
(1.01469 -0.00139924 0)
(1.02368 0.00033704 0)
(1.01645 -0.00105762 0)
(1.02067 9.81122e-05 0)
(1.01698 -0.000605428 0)
(1.01799 -6.27979e-05 0)
(1.01608 0.000142116 0)
(1.01522 0.000235836 0)
(1.01342 0.00254173 0)
(1.01238 0.00593742 0)
(0.959203 -0.00489803 0)
(1.04143 0.00422526 0)
(0.969506 -0.00450035 0)
(1.03989 0.00362847 0)
(0.980222 -0.0038836 0)
(1.03772 0.00316289 0)
(0.98884 -0.00358278 0)
(1.03455 0.0026352 0)
(0.995826 -0.00327856 0)
(1.03106 0.00216496 0)
(1.0016 -0.00284722 0)
(1.02775 0.00179762 0)
(1.00631 -0.00243689 0)
(1.02469 0.00145901 0)
(1.00994 -0.00210231 0)
(1.022 0.00112518 0)
(1.01251 -0.00182055 0)
(1.01973 0.000795272 0)
(1.01411 -0.00154657 0)
(1.01789 0.000491847 0)
(1.01486 -0.00124705 0)
(1.01637 0.00022792 0)
(1.01483 -0.000902985 0)
(1.01501 2.27183e-05 0)
(1.01407 -0.000494394 0)
(1.01351 -2.02521e-05 0)
(1.01247 1.72728e-05 0)
(1.01145 0.00108911 0)
(1.00992 0.00164605 0)
(1.0092 0.00843078 0)
(0.973059 -0.00488684 0)
(1.02637 0.0040982 0)
(0.981058 -0.00447909 0)
(1.02483 0.00349968 0)
(0.98976 -0.00384874 0)
(1.02317 0.00303824 0)
(0.996317 -0.00352525 0)
(1.02079 0.00251455 0)
(1.00125 -0.00320374 0)
(1.01843 0.00204396 0)
(1.00506 -0.00276253 0)
(1.01653 0.00167781 0)
(1.00788 -0.00234337 0)
(1.01501 0.00134305 0)
(1.00978 -0.00199983 0)
(1.01382 0.00101487 0)
(1.01088 -0.00170872 0)
(1.01286 0.000691284 0)
(1.01135 -0.00142633 0)
(1.01208 0.000397043 0)
(1.01132 -0.00112077 0)
(1.01132 0.000152604 0)
(1.01085 -0.000774585 0)
(1.01043 -1.89337e-05 0)
(1.00991 -0.000388508 0)
(1.00919 1.8107e-05 0)
(1.00838 0.000205193 0)
(1.0073 0.0010501 0)
(1.00624 0.00259954 0)
(1.00553 0.0061932 0)
(0.983641 -0.00485508 0)
(1.01492 0.00397964 0)
(0.988654 -0.00444035 0)
(1.01369 0.0033798 0)
(0.994802 -0.00380408 0)
(1.01281 0.00292489 0)
(0.999124 -0.00346294 0)
(1.01141 0.00240794 0)
(1.00214 -0.0031294 0)
(1.01013 0.00193844 0)
(1.00435 -0.00268337 0)
(1.00933 0.00157351 0)
(1.00592 -0.00225738 0)
(1.00878 0.00123998 0)
(1.00691 -0.00190285 0)
(1.00837 0.000910538 0)
(1.00739 -0.00159566 0)
(1.00798 0.000581083 0)
(1.0075 -0.00129297 0)
(1.00757 0.000278392 0)
(1.0073 -0.00096458 0)
(1.00704 2.99018e-05 0)
(1.00678 -0.000578081 0)
(1.00629 -0.000144595 0)
(1.00586 -0.000130707 0)
(1.00515 -0.00012308 0)
(1.00439 0.000749824 0)
(1.00344 0.000580065 0)
(1.00241 0.00408412 0)
(1.00199 0.00465845 0)
(0.990779 -0.00480757 0)
(1.00732 0.00387893 0)
(0.993079 -0.00438988 0)
(1.00648 0.00327765 0)
(0.996973 -0.00375413 0)
(1.00626 0.00282753 0)
(0.999536 -0.00339879 0)
(1.00558 0.00231569 0)
(1.0012 -0.00305552 0)
(1.00497 0.00184467 0)
(1.0024 -0.00260629 0)
(1.00472 0.00147758 0)
(1.00328 -0.00217445 0)
(1.0046 0.00114245 0)
(1.00385 -0.00181041 0)
(1.00449 0.000811407 0)
(1.0041 -0.00149208 0)
(1.00429 0.000481981 0)
(1.00408 -0.0011821 0)
(1.004 0.000187288 0)
(1.00383 -0.000856376 0)
(1.00356 -3.9813e-05 0)
(1.0033 -0.000498924 0)
(1.00285 -0.000136556 0)
(1.00239 -0.000124185 0)
(1.00176 0.000120939 0)
(1.00095 0.000275884 0)
(1.00019 0.00184973 0)
(0.999232 0.002591 0)
(0.999017 0.0102029 0)
(0.995113 -0.00474868 0)
(1.00281 0.00379419 0)
(0.995456 -0.00433032 0)
(1.00227 0.00319068 0)
(0.997761 -0.00369869 0)
(1.00244 0.00274057 0)
(0.999199 -0.00333063 0)
(1.00215 0.00223011 0)
(1.00006 -0.00297756 0)
(1.00185 0.0017539 0)
(1.00068 -0.00252427 0)
(1.0018 0.00138053 0)
(1.00117 -0.00208578 0)
(1.0018 0.00104061 0)
(1.0015 -0.00171202 0)
(1.00177 0.000706916 0)
(1.00162 -0.00138376 0)
(1.00163 0.000379054 0)
(1.00153 -0.00106789 0)
(1.00138 9.38042e-05 0)
(1.00124 -0.000733545 0)
(1.00095 -0.000119077 0)
(1.00068 -0.000392827 0)
(1.00024 -0.000166214 0)
(0.999766 -2.03258e-05 0)
(0.99912 0.000165006 0)
(0.998429 0.000385854 0)
(0.99761 0.00202526 0)
(0.997205 0.00231157 0)
(0.9967 0.0100109 0)
(0.997535 -0.00468105 0)
(1.00033 0.00371792 0)
(0.996694 -0.00426216 0)
(0.999983 0.0031114 0)
(0.998041 -0.00363607 0)
(1.00032 0.00265615 0)
(0.998847 -0.00325586 0)
(1.0002 0.00214381 0)
(0.999262 -0.00289187 0)
(1.00002 0.00165948 0)
(0.999545 -0.00243216 0)
(1.00001 0.00127564 0)
(0.999795 -0.00198388 0)
(1.00003 0.000925246 0)
(0.999966 -0.00159557 0)
(1.00001 0.000581659 0)
(0.999985 -0.00124969 0)
(0.999872 0.000245263 0)
(0.999834 -0.000915288 0)
(0.999615 -4.50065e-05 0)
(0.999498 -0.000557342 0)
(0.99917 -0.000257857 0)
(0.998908 -0.000180587 0)
(0.998448 -0.000317544 0)
(0.99798 0.000291995 0)
(0.997317 -0.000117122 0)
(0.996671 0.00137292 0)
(0.995861 0.000749796 0)
(0.995637 0.00390882 0)
(0.995312 0.00262875 0)
(0.998811 -0.00460595 0)
(0.999052 0.00364233 0)
(0.997339 -0.00418504 0)
(0.998797 0.00303289 0)
(0.998163 -0.00356497 0)
(0.999196 0.00256883 0)
(0.998639 -0.00317354 0)
(0.999152 0.00205372 0)
(0.99882 -0.00279884 0)
(0.999006 0.00156264 0)
(0.998901 -0.00233457 0)
(0.998997 0.00117205 0)
(0.998991 -0.00188238 0)
(0.998997 0.000819281 0)
(0.99905 -0.00149138 0)
(0.998965 0.000481025 0)
(0.998995 -0.0011479 0)
(0.998822 0.000162304 0)
(0.998795 -0.000827396 0)
(0.998557 -9.25623e-05 0)
(0.99842 -0.000507513 0)
(0.998097 -0.000241663 0)
(0.997801 -0.000177516 0)
(0.99736 -0.000215681 0)
(0.99685 0.000268863 0)
(0.996248 0.000118382 0)
(0.995521 0.00134934 0)
(0.994864 0.000996176 0)
(0.994317 0.00401624 0)
(0.994781 0.0016443 0)
(0.999456 -0.00452382 0)
(0.998413 0.0035617 0)
(0.997676 -0.00409806 0)
(0.998206 0.00294979 0)
(0.998228 -0.00348352 0)
(0.99862 0.00247347 0)
(0.998537 -0.00308037 0)
(0.998614 0.00195334 0)
(0.9986 -0.00269223 0)
(0.998489 0.00145299 0)
(0.998566 -0.00221884 0)
(0.998467 0.00105034 0)
(0.998558 -0.00175605 0)
(0.998446 0.000686874 0)
(0.998547 -0.00135268 0)
(0.998399 0.000341621 0)
(0.998447 -0.000996828 0)
(0.998246 2.28914e-05 0)
(0.998218 -0.000663626 0)
(0.997969 -0.000227889 0)
(0.997823 -0.000345086 0)
(0.997493 -0.000348209 0)
(0.997191 -1.87299e-05 0)
(0.996739 -0.000276993 0)
(0.996239 0.000412192 0)
(0.995629 0.000193069 0)
(0.994937 0.00126404 0)
(0.994327 0.00163646 0)
(0.9938 0.00394322 0)
(0.994759 0.00610538 0)
(0.999769 -0.00443497 0)
(0.99811 0.00347301 0)
(0.997846 -0.00400091 0)
(0.997929 0.0028601 0)
(0.998261 -0.00339222 0)
(0.998346 0.00237027 0)
(0.998488 -0.00297908 0)
(0.998363 0.00184664 0)
(0.998493 -0.00257973 0)
(0.998252 0.00134132 0)
(0.998399 -0.00210177 0)
(0.99822 0.000934012 0)
(0.998334 -0.00163873 0)
(0.998184 0.000573236 0)
(0.998282 -0.00124063 0)
(0.998128 0.000242767 0)
(0.998157 -0.000900163 0)
(0.99797 -4.50673e-05 0)
(0.997911 -0.000600282 0)
(0.997687 -0.000241956 0)
(0.997507 -0.000329238 0)
(0.997203 -0.000278727 0)
(0.996868 -5.56383e-05 0)
(0.996443 -6.823e-05 0)
(0.995926 0.000252623 0)
(0.995341 0.000612998 0)
(0.994685 0.000984815 0)
(0.994156 0.00243214 0)
(0.993878 0.00364167 0)
(0.994774 0.0102949 0)
(0.999914 -0.00433926 0)
(0.997977 0.003374 0)
(0.99793 -0.0038921 0)
(0.997814 0.00276089 0)
(0.998278 -0.00328854 0)
(0.998228 0.00225522 0)
(0.998464 -0.00286498 0)
(0.998261 0.00172678 0)
(0.998443 -0.00245248 0)
(0.99816 0.0012149 0)
(0.99832 -0.00196721 0)
(0.998123 0.000801074 0)
(0.998226 -0.00150104 0)
(0.998077 0.00043916 0)
(0.998153 -0.0011034 0)
(0.998015 0.000117914 0)
(0.998016 -0.000770057 0)
(0.997852 -0.000151152 0)
(0.997767 -0.000493324 0)
(0.997563 -0.000306627 0)
(0.997364 -0.000244476 0)
(0.997074 -0.000298298 0)
(0.996735 2.39467e-05 0)
(0.996304 -5.31497e-05 0)
(0.995819 0.000444743 0)
(0.995222 0.000617163 0)
(0.994651 0.00148086 0)
(0.99416 0.00235829 0)
(0.9944 0.0039785 0)
(0.995095 0.00643533 0)
(0.99998 -0.00423668 0)
(0.997925 0.0032636 0)
(0.997976 -0.00377108 0)
(0.997771 0.00265163 0)
(0.998293 -0.00317308 0)
(0.998183 0.00212938 0)
(0.99846 -0.00274066 0)
(0.998225 0.00159747 0)
(0.998428 -0.00231676 0)
(0.998133 0.00108245 0)
(0.998291 -0.00182882 0)
(0.998095 0.000668203 0)
(0.99818 -0.00136587 0)
(0.998046 0.000313909 0)
(0.998095 -0.00098 0)
(0.997982 1.58341e-05 0)
(0.99795 -0.000665746 0)
(0.99782 -0.000219146 0)
(0.997698 -0.000420556 0)
(0.997534 -0.00032405 0)
(0.997295 -0.000203755 0)
(0.997048 -0.000270159 0)
(0.99667 6.2054e-05 0)
(0.996299 -5.37078e-05 0)
(0.995769 0.00068382 0)
(0.995268 0.000558874 0)
(0.994669 0.00205447 0)
(0.994289 0.00225859 0)
(0.994218 0.00459384 0)
(0.995554 0.00286508 0)
(1.00001 -0.00412674 0)
(0.997905 0.00314035 0)
(0.998007 -0.00363649 0)
(0.997757 0.00253033 0)
(0.998312 -0.00304377 0)
(0.998164 0.00198978 0)
(0.998473 -0.00260288 0)
(0.998208 0.00145422 0)
(0.998438 -0.00216788 0)
(0.99812 0.000937652 0)
(0.998299 -0.00167848 0)
(0.998079 0.000523373 0)
(0.998184 -0.00122061 0)
(0.998025 0.00018166 0)
(0.998097 -0.000854636 0)
(0.997956 -8.72529e-05 0)
(0.997953 -0.000575853 0)
(0.99779 -0.000273049 0)
(0.997707 -0.000374435 0)
(0.997501 -0.000312268 0)
(0.997314 -0.000204856 0)
(0.997016 -0.000179692 0)
(0.996698 2.10542e-05 0)
(0.996289 0.000185565 0)
(0.995826 0.00053042 0)
(0.995314 0.00102173 0)
(0.994813 0.00180224 0)
(0.994445 0.00306292 0)
(0.994399 0.00480827 0)
(0.99622 0.00717628 0)
(1.00003 -0.00401 0)
(0.997906 0.00300488 0)
(0.998027 -0.00348919 0)
(0.99776 0.002399 0)
(0.998327 -0.00290361 0)
(0.998163 0.00184171 0)
(0.998484 -0.00245825 0)
(0.99821 0.00130716 0)
(0.998447 -0.00201826 0)
(0.998127 0.000796805 0)
(0.998306 -0.00153528 0)
(0.998087 0.000393779 0)
(0.998189 -0.00109902 0)
(0.998031 8.28458e-05 0)
(0.9981 -0.000772488 0)
(0.997962 -0.000137518 0)
(0.997956 -0.000555839 0)
(0.997795 -0.000250206 0)
(0.997714 -0.000415628 0)
(0.997507 -0.0002121 0)
(0.997329 -0.000298233 0)
(0.997028 3.84242e-07 0)
(0.996732 -0.000131708 0)
(0.996314 0.000543382 0)
(0.995898 0.000279904 0)
(0.995397 0.00161908 0)
(0.994988 0.00143833 0)
(0.994713 0.00390781 0)
(0.994913 0.00490005 0)
(0.99644 0.0117225 0)
(1.00003 -0.00388456 0)
(0.997923 0.00285329 0)
(0.998037 -0.00332488 0)
(0.99778 0.00225196 0)
(0.998334 -0.00274632 0)
(0.998181 0.00167682 0)
(0.998487 -0.00229705 0)
(0.998231 0.00114392 0)
(0.998447 -0.001852 0)
(0.998153 0.00064013 0)
(0.998306 -0.00137605 0)
(0.998115 0.000251852 0)
(0.998189 -0.000962456 0)
(0.998057 -3.04578e-05 0)
(0.998102 -0.000662564 0)
(0.997984 -0.000210294 0)
(0.997962 -0.00048381 0)
(0.997814 -0.000278098 0)
(0.997729 -0.000364323 0)
(0.997525 -0.000221857 0)
(0.997355 -0.000220502 0)
(0.997047 -3.5495e-05 0)
(0.996784 6.07523e-05 0)
(0.996353 0.000393956 0)
(0.995996 0.000723036 0)
(0.995492 0.00141588 0)
(0.995192 0.0022256 0)
(0.995024 0.00350513 0)
(0.995791 0.00496285 0)
(0.996864 0.00697112 0)
(1.00003 -0.00375167 0)
(0.997945 0.00268788 0)
(0.998049 -0.00314727 0)
(0.997806 0.00209295 0)
(0.998343 -0.00257759 0)
(0.998207 0.00149994 0)
(0.998493 -0.00212749 0)
(0.998262 0.000971279 0)
(0.998449 -0.00168242 0)
(0.998191 0.000480258 0)
(0.998306 -0.00122262 0)
(0.998157 0.000113845 0)
(0.998187 -0.000860471 0)
(0.998101 -0.00012742 0)
(0.998098 -0.000609469 0)
(0.998027 -0.000251996 0)
(0.997958 -0.000467539 0)
(0.997859 -0.000274159 0)
(0.997727 -0.000356471 0)
(0.997577 -0.000205249 0)
(0.997356 -0.00017342 0)
(0.997118 -6.10123e-05 0)
(0.996793 0.000231494 0)
(0.996462 0.000263761 0)
(0.996053 0.00111794 0)
(0.995685 0.00126578 0)
(0.995337 0.00294606 0)
(0.995235 0.00329824 0)
(0.995542 0.00512283 0)
(0.997399 0.00275586 0)
(1.00004 -0.00361641 0)
(0.997959 0.00251675 0)
(0.998074 -0.00296385 0)
(0.997817 0.00193733 0)
(0.99837 -0.00241145 0)
(0.998215 0.00133816 0)
(0.998522 -0.0019747 0)
(0.99827 0.000831492 0)
(0.998479 -0.00154755 0)
(0.9982 0.000375268 0)
(0.998339 -0.00112265 0)
(0.998162 5.46695e-05 0)
(0.998225 -0.000777683 0)
(0.998102 -0.000143867 0)
(0.998143 -0.000589857 0)
(0.998023 -0.000212662 0)
(0.99801 -0.000496713 0)
(0.997853 -0.000185879 0)
(0.997785 -0.000414542 0)
(0.997575 -6.73283e-05 0)
(0.997419 -0.000246032 0)
(0.99713 0.000152998 0)
(0.996873 8.40076e-05 0)
(0.996517 0.000630947 0)
(0.996193 0.000892116 0)
(0.995827 0.00180237 0)
(0.99558 0.00265088 0)
(0.995458 0.00425269 0)
(0.995726 0.00578353 0)
(0.998202 0.00769463 0)
(1.00003 -0.00345459 0)
(0.997983 0.0023003 0)
(0.998091 -0.00273389 0)
(0.997838 0.00172253 0)
(0.998386 -0.00218444 0)
(0.998233 0.00109716 0)
(0.998539 -0.00174266 0)
(0.998289 0.000589481 0)
(0.998495 -0.00131246 0)
(0.998223 0.000144062 0)
(0.998357 -0.000914688 0)
(0.998188 -0.000144995 0)
(0.998245 -0.000614624 0)
(0.998122 -0.00029285 0)
(0.998166 -0.000478194 0)
(0.998042 -0.000299874 0)
(0.998037 -0.0004455 0)
(0.997873 -0.00021008 0)
(0.997817 -0.000438801 0)
(0.997602 1.19913e-07 0)
(0.997462 -0.000373227 0)
(0.997167 0.000419626 0)
(0.99694 -0.000137565 0)
(0.996591 0.00119657 0)
(0.99632 0.000545838 0)
(0.995994 0.00254286 0)
(0.995855 0.00213479 0)
(0.995846 0.00529964 0)
(0.996305 0.00624678 0)
(0.998099 0.0129828 0)
(1.00002 -0.00332557 0)
(0.998032 0.0021334 0)
(0.998091 -0.0025565 0)
(0.997884 0.00159107 0)
(0.998383 -0.00204676 0)
(0.998278 0.000981508 0)
(0.998537 -0.00165042 0)
(0.998338 0.000530029 0)
(0.99849 -0.00127752 0)
(0.998273 0.000160692 0)
(0.998357 -0.000962526 0)
(0.998234 -5.17608e-05 0)
(0.998251 -0.00078402 0)
(0.998164 -0.000104589 0)
(0.99818 -0.000711492 0)
(0.998076 -6.48986e-05 0)
(0.998058 -0.00068082 0)
(0.997903 6.3094e-06 0)
(0.997851 -0.000609927 0)
(0.997631 0.000126589 0)
(0.99752 -0.000411023 0)
(0.997209 0.000405605 0)
(0.997038 7.38736e-05 0)
(0.996668 0.00103629 0)
(0.996471 0.00102754 0)
(0.99615 0.00236026 0)
(0.996156 0.00299257 0)
(0.99632 0.00475657 0)
(0.997397 0.00577133 0)
(0.99838 0.00707078 0)
(1 -0.00312655 0)
(0.99809 0.00185465 0)
(0.998095 -0.00226531 0)
(0.997938 0.00131442 0)
(0.998383 -0.0017539 0)
(0.998334 0.00067779 0)
(0.998538 -0.00135375 0)
(0.998397 0.000229406 0)
(0.998489 -0.000965878 0)
(0.998336 -0.000127047 0)
(0.998357 -0.000630675 0)
(0.998298 -0.000346316 0)
(0.998253 -0.000407674 0)
(0.998226 -0.000440961 0)
(0.998181 -0.000260477 0)
(0.998143 -0.000499305 0)
(0.998056 -9.57897e-05 0)
(0.997979 -0.000557499 0)
(0.997844 0.000159337 0)
(0.997725 -0.000586508 0)
(0.997514 0.000540456 0)
(0.997335 -0.000495513 0)
(0.997054 0.00118137 0)
(0.996844 -6.90477e-05 0)
(0.996573 0.0023116 0)
(0.996452 0.00122937 0)
(0.996351 0.0044628 0)
(0.9965 0.00353652 0)
(0.996812 0.00648962 0)
(0.998879 0.00251634 0)
(1 -0.00299361 0)
(0.998128 0.00167462 0)
(0.998126 -0.0020802 0)
(0.997965 0.00118218 0)
(0.998414 -0.00162028 0)
(0.998356 0.000571309 0)
(0.998576 -0.00128897 0)
(0.99842 0.000190773 0)
(0.998532 -0.00100192 0)
(0.998357 -4.78544e-05 0)
(0.998406 -0.000815814 0)
(0.998313 -0.00011809 0)
(0.998309 -0.000758479 0)
(0.998238 -6.64483e-05 0)
(0.998241 -0.000778337 0)
(0.998154 5.10508e-05 0)
(0.998118 -0.000822947 0)
(0.997994 0.000234146 0)
(0.997912 -0.000842332 0)
(0.997745 0.00058565 0)
(0.997596 -0.000766972 0)
(0.997375 0.00112093 0)
(0.997168 -0.000466758 0)
(0.996937 0.00205474 0)
(0.996766 0.000380007 0)
(0.996649 0.00352173 0)
(0.996682 0.00199632 0)
(0.996846 0.00621919 0)
(0.997222 0.00607927 0)
(0.999089 0.0135994 0)
(0.999993 -0.00279052 0)
(0.998191 0.00139447 0)
(0.99814 -0.00178977 0)
(0.998018 0.000927191 0)
(0.99842 -0.00135156 0)
(0.99841 0.000323283 0)
(0.998588 -0.0010602 0)
(0.998475 -2.4026e-05 0)
(0.998547 -0.000818062 0)
(0.998409 -0.000209046 0)
(0.998428 -0.000681339 0)
(0.99836 -0.000245648 0)
(0.998338 -0.000622295 0)
(0.998279 -0.000217318 0)
(0.998277 -0.000589468 0)
(0.998188 -0.000197829 0)
(0.998165 -0.000523102 0)
(0.998023 -0.000169982 0)
(0.997984 -0.000403237 0)
(0.997778 -2.1807e-05 0)
(0.997694 -7.33655e-05 0)
(0.997422 0.000393532 0)
(0.99732 0.000486185 0)
(0.997032 0.00118785 0)
(0.996965 0.00155287 0)
(0.996813 0.00264823 0)
(0.99705 0.00343359 0)
(0.997477 0.00480826 0)
(0.998709 0.00579505 0)
(0.999293 0.00719498 0)
(0.999994 -0.00263926 0)
(0.998256 0.00117457 0)
(0.998168 -0.00157194 0)
(0.998073 0.000761648 0)
(0.998438 -0.00118082 0)
(0.998468 0.000185845 0)
(0.998607 -0.000920754 0)
(0.998539 -0.000111114 0)
(0.998566 -0.000707482 0)
(0.998476 -0.000259801 0)
(0.998447 -0.000572718 0)
(0.998431 -0.000310076 0)
(0.998352 -0.000458463 0)
(0.998355 -0.000343569 0)
(0.998281 -0.000280561 0)
(0.998277 -0.000434102 0)
(0.998158 -2.58951e-05 0)
(0.998126 -0.00057211 0)
(0.997969 0.000367013 0)
(0.997912 -0.000716383 0)
(0.997699 0.000936886 0)
(0.997586 -0.000669195 0)
(0.99735 0.0017719 0)
(0.997255 -0.000221521 0)
(0.997108 0.00308618 0)
(0.997161 0.00121137 0)
(0.997221 0.00535943 0)
(0.997494 0.00334722 0)
(0.997844 0.00647435 0)
(0.999809 0.00091357 0)
(1.00005 -0.00240345 0)
(0.998266 0.0008555 0)
(0.998258 -0.00126469 0)
(0.998062 0.00048629 0)
(0.998521 -0.000920064 0)
(0.998454 -6.44218e-05 0)
(0.9987 -0.000747237 0)
(0.998524 -0.000266309 0)
(0.998665 -0.000640234 0)
(0.998459 -0.000285073 0)
(0.99855 -0.000656155 0)
(0.998413 -0.000189096 0)
(0.998458 -0.000752364 0)
(0.998344 -1.72181e-05 0)
(0.998386 -0.000915162 0)
(0.998271 0.000258229 0)
(0.99826 -0.00105468 0)
(0.998136 0.00057401 0)
(0.998068 -0.00110405 0)
(0.997936 0.000960409 0)
(0.997798 -0.000983212 0)
(0.99765 0.00148295 0)
(0.997491 -0.00049577 0)
(0.997387 0.00231153 0)
(0.997346 0.000501519 0)
(0.997426 0.00372662 0)
(0.997624 0.0024858 0)
(0.997867 0.00688599 0)
(0.998148 0.00733959 0)
(0.99993 0.0135351 0)
(1.00006 -0.00230467 0)
(0.998326 0.000718757 0)
(0.998307 -0.00113054 0)
(0.998097 0.000434795 0)
(0.99856 -0.000862258 0)
(0.998484 -8.18225e-05 0)
(0.998752 -0.000793728 0)
(0.998553 -0.000223557 0)
(0.998725 -0.000724681 0)
(0.998481 -0.000208225 0)
(0.998618 -0.00073913 0)
(0.998426 -0.000119984 0)
(0.998535 -0.0008087 0)
(0.99834 3.66579e-05 0)
(0.998481 -0.000943022 0)
(0.99826 0.000305831 0)
(0.99837 -0.001071 0)
(0.998119 0.000635058 0)
(0.9982 -0.00114805 0)
(0.997932 0.00109884 0)
(0.997964 -0.00103645 0)
(0.99768 0.0017681 0)
(0.997686 -0.000600593 0)
(0.99747 0.0027072 0)
(0.99759 0.000309985 0)
(0.997642 0.00395744 0)
(0.998177 0.0019116 0)
(0.998816 0.00659521 0)
(0.999835 0.006682 0)
(0.999353 0.0134844 0)
(1.00002 -0.00202706 0)
(0.998457 0.000336247 0)
(0.998307 -0.000733314 0)
(0.9982 0.00010058 0)
(0.998546 -0.000436749 0)
(0.998583 -0.000416647 0)
(0.998751 -0.000377426 0)
(0.998655 -0.000598739 0)
(0.998729 -0.000248226 0)
(0.998583 -0.000702463 0)
(0.998623 -0.000104418 0)
(0.998529 -0.000812558 0)
(0.998543 6.78356e-05 0)
(0.998448 -0.000918476 0)
(0.998492 0.00029671 0)
(0.998367 -0.00104299 0)
(0.998384 0.000557178 0)
(0.998231 -0.00111605 0)
(0.998226 0.000882581 0)
(0.998054 -0.00103145 0)
(0.998012 0.00130771 0)
(0.997823 -0.000682769 0)
(0.997785 0.00195551 0)
(0.997666 9.22055e-05 0)
(0.997745 0.00303385 0)
(0.99789 0.00121091 0)
(0.998433 0.00409373 0)
(0.999239 0.0016618 0)
(1.0003 0.00348131 0)
(0.999842 0.000103027 0)
(1 -0.00189408 0)
(0.998582 0.000148826 0)
(0.998338 -0.000697012 0)
(0.998291 8.60577e-05 0)
(0.998565 -0.000606549 0)
(0.998662 -0.000272332 0)
(0.998781 -0.000660892 0)
(0.998739 -0.000348361 0)
(0.998761 -0.000586411 0)
(0.998668 -0.000390656 0)
(0.998654 -0.000478364 0)
(0.998619 -0.000460478 0)
(0.998572 -0.000342507 0)
(0.998542 -0.000541982 0)
(0.998513 -0.000172109 0)
(0.998471 -0.00066087 0)
(0.998408 8.83994e-05 0)
(0.998347 -0.000712887 0)
(0.998263 0.000434177 0)
(0.998187 -0.000589006 0)
(0.998081 0.000919051 0)
(0.99799 -0.0001425 0)
(0.997907 0.00166172 0)
(0.997893 0.000713209 0)
(0.997918 0.00271956 0)
(0.998083 0.00182883 0)
(0.998343 0.00344586 0)
(0.998779 0.00153992 0)
(0.999379 0.00187099 0)
(1.00158 0.000160178 0)
(1.00002 -0.00173597 0)
(0.998659 -6.47943e-05 0)
(0.99842 -0.000514901 0)
(0.998324 -4.57654e-05 0)
(0.998634 -0.000221454 0)
(0.998695 -0.000505654 0)
(0.998863 -0.000348149 0)
(0.998779 -0.000608243 0)
(0.998846 -0.000304047 0)
(0.99871 -0.0006327 0)
(0.998738 -0.00023469 0)
(0.998661 -0.000619642 0)
(0.998655 -0.0001787 0)
(0.998588 -0.000564622 0)
(0.998595 -0.000132569 0)
(0.998527 -0.000495104 0)
(0.998493 -7.43449e-05 0)
(0.998414 -0.00037012 0)
(0.998362 8.49707e-05 0)
(0.998275 -8.97036e-05 0)
(0.998212 0.000454465 0)
(0.998116 0.000455701 0)
(0.998088 0.00114522 0)
(0.998057 0.00128469 0)
(0.998133 0.00203857 0)
(0.998221 0.00237502 0)
(0.998447 0.00319165 0)
(0.998913 0.00384554 0)
(1.00005 0.0048952 0)
(1.00381 0.00610336 0)
(1.00002 -0.00143542 0)
(0.998777 -0.000391895 0)
(0.998487 -0.000293948 0)
(0.998421 -0.000174163 0)
(0.998667 -0.000222779 0)
(0.998758 -0.000406291 0)
(0.998915 -0.000503303 0)
(0.998851 -0.000387423 0)
(0.998904 -0.000628893 0)
(0.998785 -0.00025095 0)
(0.998801 -0.000735117 0)
(0.998735 -4.40089e-05 0)
(0.998724 -0.000879863 0)
(0.998658 0.000207704 0)
(0.998667 -0.00103523 0)
(0.998592 0.000485459 0)
(0.99857 -0.00110637 0)
(0.998489 0.00076594 0)
(0.998456 -0.00099055 0)
(0.998378 0.00116283 0)
(0.998335 -0.00058415 0)
(0.998266 0.00175632 0)
(0.998239 0.000136173 0)
(0.998243 0.00247299 0)
(0.998341 0.000991213 0)
(0.998541 0.0034965 0)
(0.998921 0.00249288 0)
(0.999457 0.00636254 0)
(1.00025 0.00741397 0)
(1.00289 0.0124379 0)
(0.999997 -0.00155499 0)
(0.998899 -0.000278363 0)
(0.998554 -0.00057384 0)
(0.99848 0.000116014 0)
(0.998727 -0.00042016 0)
(0.998818 -0.000190929 0)
(0.998983 -0.000649874 0)
(0.998912 -0.000296559 0)
(0.998984 -0.000689429 0)
(0.99884 -0.000282599 0)
(0.998892 -0.000673708 0)
(0.99878 -0.000224386 0)
(0.998823 -0.000672373 0)
(0.998697 -0.000159246 0)
(0.998778 -0.000667591 0)
(0.998642 -8.71033e-05 0)
(0.998686 -0.000555836 0)
(0.998559 7.36349e-05 0)
(0.99859 -0.000273171 0)
(0.998481 0.000447358 0)
(0.998498 0.000261441 0)
(0.998403 0.00106802 0)
(0.998421 0.00102906 0)
(0.998398 0.00191174 0)
(0.998577 0.00201438 0)
(0.99878 0.0029251 0)
(0.99952 0.00308509 0)
(1.00068 0.00382667 0)
(1.00231 0.00393718 0)
(1.00296 0.00508929 0)
(0.999966 -0.000924543 0)
(0.999061 -0.000960214 0)
(0.99861 3.95294e-06 0)
(0.998638 -0.000478541 0)
(0.998726 0.000294293 0)
(0.998934 -0.000868379 0)
(0.998994 0.000115625 0)
(0.999043 -0.00110841 0)
(0.999 0.000205206 0)
(0.998979 -0.00122334 0)
(0.998909 0.00038662 0)
(0.998924 -0.00130021 0)
(0.998838 0.000566817 0)
(0.998843 -0.00135104 0)
(0.998788 0.000746343 0)
(0.998791 -0.0013793 0)
(0.998713 0.000942432 0)
(0.99872 -0.00126824 0)
(0.998652 0.00119894 0)
(0.998667 -0.000920852 0)
(0.998603 0.00165137 0)
(0.998622 -0.000261992 0)
(0.998589 0.00241963 0)
(0.998678 0.000793168 0)
(0.998771 0.00350119 0)
(0.999027 0.0018305 0)
(0.999335 0.00412531 0)
(0.999851 0.00131159 0)
(1.00078 0.00209931 0)
(1.00413 -0.000466083 0)
(1 -0.00145724 0)
(0.999126 -0.000261164 0)
(0.99875 -0.000836406 0)
(0.998655 0.000476838 0)
(0.998835 -0.000821976 0)
(0.99895 0.000381686 0)
(0.999102 -0.0011369 0)
(0.999076 0.000240034 0)
(0.999114 -0.00120393 0)
(0.99902 0.000219016 0)
(0.999023 -0.00113153 0)
(0.998966 0.000269662 0)
(0.998954 -0.00103876 0)
(0.99889 0.000354621 0)
(0.998908 -0.000940624 0)
(0.998847 0.000439719 0)
(0.998839 -0.000800884 0)
(0.998785 0.000585474 0)
(0.998794 -0.000517318 0)
(0.998762 0.000927729 0)
(0.998785 4.3784e-06 0)
(0.998782 0.00155356 0)
(0.998835 0.000861586 0)
(0.998893 0.0025276 0)
(0.999015 0.00201094 0)
(0.999162 0.00361607 0)
(0.999452 0.00301735 0)
(1.00015 0.00441656 0)
(1.00187 0.00446561 0)
(1.00627 0.00768365 0)
(1.00001 -0.000538898 0)
(0.999224 -0.00135301 0)
(0.998873 9.31026e-06 0)
(0.998749 -0.000576688 0)
(0.998906 0.000484818 0)
(0.999008 -0.00081958 0)
(0.999167 0.000283518 0)
(0.999145 -0.0010611 0)
(0.999188 0.000201154 0)
(0.999101 -0.00112973 0)
(0.999107 0.000267192 0)
(0.999052 -0.00106497 0)
(0.999042 0.000345491 0)
(0.998975 -0.000961044 0)
(0.998992 0.00040902 0)
(0.998933 -0.00085341 0)
(0.998931 0.000516537 0)
(0.998899 -0.000647998 0)
(0.998918 0.000772933 0)
(0.998913 -0.000238816 0)
(0.998951 0.00128303 0)
(0.998977 0.000456549 0)
(0.999055 0.00204432 0)
(0.999152 0.00142182 0)
(0.999307 0.00313318 0)
(0.999495 0.0029304 0)
(0.999811 0.00503856 0)
(1.00054 0.00526878 0)
(1.00229 0.00680183 0)
(1.00676 0.0052137 0)
(1.00001 -0.00112609 0)
(0.999333 -0.000236425 0)
(0.999 -0.00111841 0)
(0.99886 0.000576163 0)
(0.998975 -0.000969016 0)
(0.999084 0.00077245 0)
(0.999236 -0.00143995 0)
(0.999223 0.000642077 0)
(0.999267 -0.00170993 0)
(0.999188 0.000675766 0)
(0.999193 -0.00169457 0)
(0.999138 0.000800771 0)
(0.99913 -0.00158284 0)
(0.999064 0.000894156 0)
(0.999085 -0.00140897 0)
(0.999033 0.000978797 0)
(0.999037 -0.00112292 0)
(0.999009 0.00115247 0)
(0.999044 -0.000757719 0)
(0.999061 0.00145057 0)
(0.999122 -0.000204898 0)
(0.999171 0.00204489 0)
(0.999274 0.000636526 0)
(0.999416 0.00292685 0)
(0.999674 0.00171923 0)
(1.00003 0.00427727 0)
(1.00048 0.00399976 0)
(1.00102 0.00821366 0)
(1.00193 0.00962122 0)
(1.00522 0.0137387 0)
(0.999944 -0.000603711 0)
(0.999419 -0.00106181 0)
(0.999029 -0.000355286 0)
(0.998953 -0.000350869 0)
(0.999011 4.65723e-05 0)
(0.999129 -0.000269506 0)
(0.999242 -0.000243341 0)
(0.999277 -0.000551381 0)
(0.999297 -0.000466005 0)
(0.999266 -0.000585047 0)
(0.999242 -0.000417344 0)
(0.999227 -0.000468045 0)
(0.999182 -0.000311458 0)
(0.999158 -0.000343917 0)
(0.999139 -0.00018286 0)
(0.999141 -0.000209467 0)
(0.999105 5.99994e-05 0)
(0.999129 4.81632e-05 0)
(0.999132 0.000415125 0)
(0.9992 0.000469126 0)
(0.999263 0.000930186 0)
(0.999365 0.00110347 0)
(0.999483 0.0017527 0)
(0.999647 0.00217388 0)
(0.99994 0.00296168 0)
(1.00049 0.00329241 0)
(1.00155 0.00382975 0)
(1.00303 0.00390015 0)
(1.00484 0.00421804 0)
(1.00454 0.00364322 0)
(0.99986 -0.000509003 0)
(0.999681 -0.000912246 0)
(0.999096 -0.000481928 0)
(0.999215 -0.000267935 0)
(0.999008 -8.55454e-05 0)
(0.999344 -0.000214533 0)
(0.999231 -0.000298238 0)
(0.999478 -0.00044762 0)
(0.999305 -0.000434715 0)
(0.999471 -0.000524264 0)
(0.999267 -0.000342366 0)
(0.999421 -0.000466577 0)
(0.999216 -0.000197855 0)
(0.999344 -0.000363979 0)
(0.999184 -2.56574e-05 0)
(0.999334 -0.000216854 0)
(0.999177 0.000202339 0)
(0.999338 4.89102e-05 0)
(0.999241 0.000519245 0)
(0.999439 0.000525237 0)
(0.999403 0.00101389 0)
(0.999657 0.00108705 0)
(0.99973 0.00161255 0)
(1.00006 0.00177034 0)
(1.00019 0.00238715 0)
(1.00056 0.00274776 0)
(1.0008 0.00374466 0)
(1.00129 0.0043731 0)
(1.00172 0.00544715 0)
(1.00477 0.00595512 0)
(0.999932 -0.000862592 0)
(0.999578 -0.00039072 0)
(0.999232 -0.000915291 0)
(0.999156 0.000147987 0)
(0.999148 -0.000551567 0)
(0.999255 0.000304114 0)
(0.999341 -0.000794128 0)
(0.999411 1.79336e-05 0)
(0.999419 -0.00100482 0)
(0.999435 -7.0197e-05 0)
(0.999388 -0.000939123 0)
(0.999408 3.03113e-05 0)
(0.99934 -0.000776437 0)
(0.999349 0.000180608 0)
(0.999309 -0.000557546 0)
(0.999349 0.000371851 0)
(0.999308 -0.000271164 0)
(0.999366 0.000677305 0)