/*--------------------------------*- C++ -*----------------------------------*\
| =========                 |                                                 |
| \\      /  F ield         | OpenFOAM: The Open Source CFD Toolbox           |
|  \\    /   O peration     | Version:  v2006                                 |
|   \\  /    A nd           | Website:  www.openfoam.com                      |
|    \\/     M anipulation  |                                                 |
\*---------------------------------------------------------------------------*/
FoamFile
{
    version     2.0;
    format      ascii;
    class       volScalarField;
    location    "2.1";
    object      p;
}
// * * * * * * * * * * * * * * * * * * * * * * * * * * * * * * * * * * * * * //

dimensions      [0 2 -2 0 0 0 0];


internalField   nonuniform List<scalar> 
26400
(
-4.93266e-09
0.00220945
0.00207134
0.00228701
0.00171306
0.00199645
0.00162504
0.00194801
0.00164913
0.00196134
0.0017104
0.00201556
0.00180218
0.00210352
0.001929
0.0022397
0.00211277
0.00245363
0.00239393
0.00279308
0.00282959
0.00332648
0.0035062
0.00416178
0.00456408
0.0054935
0.00630113
0.0078711
0.00961431
0.0122473
3.06219e-07
0.00220951
0.00207179
0.00228705
0.00171372
0.00199645
0.00162583
0.00194796
0.00165004
0.00196122
0.00171145
0.00201533
0.00180342
0.00210311
0.00193049
0.00223899
0.00211461
0.0024524
0.00239627
0.00279086
0.0028327
0.00332199
0.00351073
0.0041511
0.00457247
0.00546026
0.00632055
0.00772752
0.00960312
0.0115598
1.26817e-06
0.00220979
0.0020727
0.0022872
0.00171498
0.0019964
0.00162733
0.00194776
0.0016518
0.00196086
0.00171351
0.00201475
0.00180582
0.00210218
0.00193332
0.00223756
0.00211797
0.00245019
0.00240027
0.0027874
0.00283737
0.00331631
0.00351605
0.00414124
0.00457897
0.00544181
0.00631652
0.00764899
0.00948692
0.0109005
3.37823e-06
0.00221064
0.00207394
0.00228769
0.00171661
0.00199649
0.00162923
0.00194763
0.00165404
0.00196051
0.00171608
0.00201409
0.00180877
0.00210107
0.00193672
0.00223576
0.0021219
0.00244736
0.00240485
0.00278289
0.00284266
0.00330904
0.00352187
0.00412859
0.00458455
0.00541239
0.00631694
0.00752588
0.0092613
0.0103476
7.12663e-06
0.00221193
0.00207552
0.00228837
0.00171855
0.0019966
0.00163144
0.00194743
0.00165659
0.00196
0.00171897
0.00201315
0.00181203
0.00209951
0.00194042
0.00223332
0.00212613
0.00244361
0.00240973
0.00277712
0.00284814
0.00330013
0.00352748
0.00411371
0.00458749
0.00538419
0.00628491
0.0074351
0.00891299
0.00989948
1.2686e-05
0.00221332
0.0020774
0.00228896
0.00172074
0.00199646
0.00163385
0.0019469
0.00165935
0.00195906
0.00172207
0.00201166
0.00181552
0.00209726
0.0019444
0.00223001
0.00213069
0.0024388
0.00241494
0.00277014
0.00285371
0.00329009
0.00353258
0.00410063
0.00458636
0.00537194
0.00621842
0.00735881
0.00853071
0.0093483
1.98955e-05
0.00221453
0.00207954
0.00228922
0.00172311
0.00199587
0.00163639
0.00194587
0.00166225
0.00195757
0.00172537
0.00200954
0.00181931
0.00209425
0.00194881
0.00222577
0.00213582
0.00243285
0.00242079
0.00276182
0.00285975
0.00327825
0.00353781
0.00408419
0.00458493
0.0053289
0.00619239
0.0071881
0.00837098
0.00893587
2.84194e-05
0.00221544
0.00208191
0.0022891
0.00172568
0.00199478
0.00163907
0.00194432
0.00166538
0.00195552
0.001729
0.00200681
0.00182354
0.00209054
0.00195379
0.00222066
0.00214162
0.00242584
0.00242731
0.00275228
0.00286618
0.00326438
0.00354231
0.00406646
0.00458225
0.00529299
0.00613838
0.00702448
0.00804916
0.00849211
3.79179e-05
0.00221606
0.00208452
0.0022886
0.00172851
0.0019932
0.00164199
0.00194225
0.00166885
0.00195293
0.00173307
0.00200347
0.00182833
0.0020861
0.00195943
0.0022147
0.00214809
0.0024179
0.00243426
0.00274203
0.00287262
0.00325212
0.00354406
0.0040515
0.00456128
0.00529074
0.00601723
0.00692476
0.0074078
0.0080023
4.81465e-05
0.00221647
0.00208741
0.00228782
0.0017317
0.00199119
0.00164526
0.00193969
0.00167278
0.00194979
0.00173774
0.00199947
0.00183383
0.00208084
0.00196588
0.00220771
0.00215537
0.00240877
0.00244184
0.00272982
0.00287953
0.00323674
0.00354624
0.00403071
0.00455212
0.00524766
0.00594587
0.00679442
0.00708924
0.00745698
5.8977e-05
0.0022167
0.00209063
0.00228682
0.00173535
0.00198875
0.00164894
0.00193661
0.00167725
0.00194603
0.00174306
0.00199473
0.00184008
0.00207471
0.0019731
0.00219977
0.00216325
0.00239872
0.00244966
0.00271718
0.00288572
0.00322099
0.00354718
0.00400684
0.00454116
0.00517754
0.00591396
0.006629
0.00717265
0.00683596
7.03769e-05
0.00221677
0.00209421
0.0022856
0.00173954
0.00198587
0.00165313
0.00193294
0.00168234
0.00194159
0.00174912
0.00198919
0.00184713
0.00206766
0.00198108
0.00219086
0.00217163
0.00238775
0.00245755
0.00270422
0.00289051
0.00320556
0.00354499
0.00398273
0.00452081
0.00512223
0.00584622
0.00645579
0.00701393
0.00609635
8.23771e-05
0.00221664
0.00209819
0.00228416
0.00174436
0.00198251
0.00165787
0.00192862
0.00168812
0.00193639
0.00175596
0.0019828
0.00185497
0.0020597
0.00198971
0.00218112
0.00218026
0.00237598
0.00246495
0.00269127
0.00289329
0.00319069
0.00353932
0.00396142
0.00448809
0.00507818
0.00573677
0.00627392
0.00655373
0.00568102
9.50524e-05
0.0022162
0.0021026
0.00228248
0.0017499
0.00197861
0.00166323
0.00192358
0.00169464
0.00193038
0.00176361
0.00197554
0.00186355
0.00205096
0.00199877
0.00217089
0.00218878
0.00236475
0.00247099
0.00267919
0.002893
0.00317675
0.00352465
0.00394692
0.00444442
0.00502883
0.00561552
0.00608477
0.00586865
0.00509461
0.000108511
0.00221533
0.00210748
0.00228051
0.00175627
0.00197411
0.00166927
0.00191771
0.00170195
0.00192348
0.00177208
0.00196739
0.00187282
0.00204144
0.00200815
0.0021601
0.0021971
0.00235357
0.00247563
0.00266749
0.00289096
0.00316167
0.00351241
0.00391011
0.00440857
0.00494275
0.00550109
0.00591496
0.00594577
0.00469179
0.00012289
0.00221386
0.00211285
0.0022782
0.00176357
0.00196893
0.00167604
0.00191095
0.00171008
0.00191566
0.00178136
0.00195838
0.00188262
0.00203133
0.00201748
0.00214921
0.00220446
0.00234311
0.0024781
0.00265694
0.00288606
0.00314631
0.00349962
0.00387109
0.00436655
0.00484425
0.00537172
0.0057025
0.00577561
0.00395706
0.000138349
0.00221157
0.00211875
0.0022755
0.0017719
0.00196304
0.00168358
0.00190327
0.00171897
0.00190699
0.00179128
0.00194877
0.00189255
0.00202141
0.002026
0.0021398
0.00220956
0.00233484
0.0024767
0.00264931
0.00287484
0.00313478
0.00346689
0.00384777
0.00429588
0.00476348
0.00519588
0.00543653
0.00525532
0.00371097
0.000155092
0.00220822
0.00212522
0.00227236
0.00178135
0.00195639
0.00169189
0.00189464
0.00172858
0.00189751
0.00180171
0.00193877
0.00190227
0.00201198
0.00203343
0.00213189
0.00221228
0.00232845
0.00247252
0.0026427
0.00286135
0.00312587
0.0034295
0.00381567
0.00421659
0.00467255
0.00501411
0.00512835
0.00439491
0.00320591
0.000173344
0.00220353
0.00213226
0.00226871
0.00179203
0.00194893
0.00170097
0.00188501
0.00173882
0.00188723
0.0018125
0.00192849
0.00191142
0.00200234
0.00203943
0.00212481
0.00221321
0.0023218
0.00246834
0.00263217
0.00285074
0.00309852
0.00340859
0.00375657
0.0041451
0.00453148
0.00485069
0.00497126
0.00463866
0.00286075
0.000193292
0.00219721
0.00213986
0.0022646
0.00180393
0.00194078
0.00171064
0.0018747
0.00174932
0.00187686
0.00182286
0.00192077
0.00191968
0.00199554
0.00204331
0.00211967
0.00221185
0.00231607
0.00246209
0.00262141
0.0028406
0.00307273
0.00338333
0.00368769
0.00406153
0.00437477
0.00466407
0.00473355
0.00450648
0.00203005
0.000215399
0.00218882
0.00214809
0.00225985
0.00181727
0.00193174
0.00172103
0.00186337
0.00176021
0.00186565
0.00183279
0.00190833
0.00192756
0.00198846
0.00204573
0.00211531
0.00220818
0.00231137
0.00245112
0.00261149
0.0028183
0.00305551
0.00333528
0.00363558
0.00395401
0.00423308
0.00440795
0.00436982
0.00393603
0.00211697
0.000239661
0.00217811
0.00215677
0.0022547
0.00183182
0.00192236
0.00173152
0.00185215
0.00177042
0.0018568
0.00184087
0.00190451
0.00193038
0.00198771
0.00204178
0.00211832
0.00219759
0.00231631
0.00243139
0.00261505
0.00277873
0.00304212
0.00325983
0.00358149
0.00382933
0.00409676
0.00413794
0.00391612
0.00286522
0.00176265
0.000266782
0.0021645
0.00216596
0.00224897
0.00184779
0.00191244
0.00174223
0.00184032
0.00178019
0.00184735
0.00184924
0.00189751
0.0019345
0.00198215
0.00204426
0.00210976
0.00220066
0.0022994
0.00243591
0.00258151
0.00277833
0.00298055
0.00323715
0.00347525
0.00371884
0.00386636
0.00392975
0.00380719
0.0034646
0.00149642
0.000296984
0.00214766
0.00217552
0.00224274
0.00186509
0.00190218
0.00175287
0.00182789
0.00178852
0.00183719
0.00185565
0.00189183
0.00193717
0.00197719
0.00204464
0.00210275
0.00219765
0.00228664
0.00242731
0.00256511
0.00275814
0.00294484
0.00318434
0.00338689
0.00358787
0.00367486
0.00366279
0.00346599
0.00310395
0.00122963
0.00033035
0.00212734
0.00218507
0.00223647
0.00188316
0.00189316
0.0017625
0.00181972
0.00179309
0.00183654
0.00185451
0.00189689
0.00193024
0.00198611
0.00203143
0.00211466
0.00217556
0.00230072
0.00238202
0.00257092
0.00269157
0.00293366
0.00307094
0.00332053
0.00342833
0.00354002
0.00333908
0.00286528
0.00163934
0.000943699
0.000367573
0.00210303
0.00219456
0.00222994
0.00190209
0.00188428
0.00177199
0.00180971
0.00179783
0.00183053
0.00185736
0.00189131
0.00193484
0.00197586
0.00204271
0.00209524
0.00219259
0.00226922
0.00240437
0.0025131
0.00268836
0.00284657
0.00304127
0.00318141
0.00328605
0.00327476
0.00316542
0.00293173
0.00254599
0.000686257
0.000409353
0.00207423
0.00220383
0.00222311
0.00192163
0.00187438
0.00178035
0.00180143
0.00180033
0.00182815
0.00185754
0.00188999
0.00193296
0.00196838
0.00203918
0.00208364
0.00218739
0.00224513
0.00239761
0.00247917
0.00268191
0.00277912
0.00298973
0.00304952
0.00313412
0.00301368
0.00284556
0.00256043
0.0022943
0.000501127
0.000454646
0.00204211
0.00221174
0.00221834
0.00194056
0.00187142
0.00178319
0.00179979
0.00179367
0.00183693
0.00184524
0.00190786
0.00191379
0.00200038
0.00200401
0.00211914
0.00213672
0.00228318
0.00232707
0.00250137
0.00257944
0.00276376
0.00285861
0.00298204
0.00295545
0.00281586
0.00235898
0.0016293
0.000640997
0.00101063
0.000504743
0.00200494
0.002219
0.00221264
0.00196275
0.00186638
0.0017901
0.00179211
0.00179618
0.00183137
0.0018492
0.00190029
0.00191694
0.00198555
0.00200443
0.00210311
0.00213323
0.00226141
0.00231235
0.00246907
0.00254532
0.00270814
0.00277675
0.00287353
0.00282034
0.00265321
0.00212722
0.00129429
0.000220836
0.000661713
0.000561058
0.00196038
0.0022237
0.00220478
0.00198167
0.00186448
0.00179504
0.00178523
0.00179932
0.00182397
0.00185755
0.00188882
0.00193052
0.00196776
0.00202501
0.00207407
0.00214968
0.00221971
0.00231617
0.0024099
0.00251857
0.00261553
0.00269909
0.00271989
0.00269373
0.00253143
0.00226526
0.00183441
0.00123984
-0.000898831
0.000620479
0.00192498
0.00222106
0.00221223
0.00199696
0.00186725
0.00179613
0.00178069
0.00179849
0.00181957
0.00185986
0.00188272
0.00193391
0.00195793
0.00202853
0.00205611
0.00214685
0.00219092
0.00229793
0.00236098
0.00246823
0.00253106
0.00259844
0.00260029
0.00255764
0.00243862
0.00223925
0.00174416
0.00064608
-0.00310213
0.000687831
0.00187109
0.00222042
0.00218486
0.00202507
0.00187253
0.00180249
0.00177747
0.00179807
0.00181782
0.00185557
0.00188384
0.00192466
0.00196152
0.00201317
0.00206426
0.00212462
0.00218951
0.00225919
0.00233157
0.00240211
0.00245638
0.00250382
0.00249114
0.00240782
0.00219629
0.0018191
0.00126698
0.000467876
-0.00214051
0.000753331
0.00183973
0.00220052
0.00221323
0.00202051
0.001891
0.00179133
0.0017922
0.00177754
0.00183584
0.00183033
0.00190738
0.00189591
0.00198607
0.00197526
0.00207506
0.00208079
0.00217744
0.0022014
0.00228595
0.00231759
0.00237702
0.00240002
0.00239421
0.00225107
0.00201391
0.00130181
0.000103467
-0.00155017
-0.00228977
0.000832476
0.00178944
0.00218732
0.00217285
0.00206091
0.0018902
0.00181362
0.00177661
0.00179488
0.00181503
0.00185022
0.00188345
0.00191976
0.00196006
0.00200205
0.00204454
0.00208824
0.00213041
0.00217564
0.00221389
0.00225188
0.00227214
0.00227574
0.00222458
0.00210256
0.00187463
0.00153105
0.00104585
0.000103041
-0.00314099
0.000903582
0.0017625
0.00215491
0.00219172
0.00206009
0.00190808
0.00181618
0.00177912
0.00178868
0.00181032
0.00184392
0.00187684
0.00191199
0.00194801
0.00198693
0.00202724
0.00206742
0.00210865
0.0021398
0.00215805
0.00217451
0.00215833
0.00213185
0.00205632
0.00195778
0.00178723
0.001513
0.00079488
-0.000895929
-0.00527555
0.000983001
0.00173131
0.00211805
0.00217515
0.00207631
0.00192065
0.00182817
0.0017825
0.00179308
0.0018072
0.00184183
0.00187093
0.00190629
0.00194369
0.00198135
0.00201743
0.00205018
0.00207029
0.00209107
0.00209163
0.00208589
0.0020463
0.00198767
0.00187986
0.00174186
0.00153603
0.00122482
0.000483676
-0.00124874
-0.00567958
0.00107111
0.00171175
0.00207729
0.00214544
0.00208817
0.00192942
0.00184102
0.00178684
0.00179427
0.00180187
0.00183468
0.00186175
0.00189658
0.00193111
0.00196614
0.00200089
0.00202556
0.00203919
0.00204745
0.00202498
0.00199602
0.00193179
0.0018496
0.00169465
0.00145451
0.00108374
0.000626008
6.02229e-05
-0.000854104
-0.00410751
0.00111165
0.00173104
0.00203235
0.00216548
0.0020537
0.00197929
0.001835
0.00182433
0.00177423
0.00181603
0.00180959
0.00186277
0.00187366
0.00191918
0.00194127
0.00197428
0.00199289
0.0020014
0.00199938
0.0019661
0.00189464
0.0018141
0.00168425
0.0015401
0.00123845
0.000700605
-0.000385455
-0.00188372
-0.00377433
-0.00350253
0.00123754
0.00168409
0.00199959
0.00210183
0.00208269
0.00196383
0.00187529
0.00181803
0.00179508
0.00179685
0.00181582
0.00184462
0.00187341
0.00190057
0.00193018
0.00194439
0.00196141
0.00195321
0.00193922
0.00188571
0.00180781
0.00167298
0.00148838
0.00126729
0.00103822
0.000758312
0.000423777
2.26385e-05
-0.000502296
-0.00339914
0.00125604
0.0017307
0.00195912
0.00212001
0.0020479
0.00200709
0.00186348
0.00184275
0.00178075
0.00180095
0.00179862
0.0018325
0.00185206
0.00187834
0.00190519
0.00191975
0.00192804
0.00191709
0.00187178
0.00182325
0.00172752
0.00161817
0.00145339
0.00125477
0.000857516
0.000116086
-0.00114484
-0.00278023
-0.00470313
-0.00409981
0.00137921
0.0016854
0.00193747
0.0020572
0.00206805
0.00199095
0.00191294
0.00184766
0.00180507
0.00178624
0.00179614
0.00181277
0.00183601
0.00185464
0.00187327
0.00187813
0.00187651
0.00185427
0.00181777
0.00175453
0.00166239
0.00153153
0.00134865
0.00109241
0.000776294
0.00043596
0.000101629
-0.000345921
-0.00157804
-0.00562184
0.00144825
0.00168768
0.00191912
0.00203392
0.00206109
0.00199309
0.00192471
0.00184617
0.00180868
0.00178299
0.00178219
0.00179446
0.00181308
0.00183746
0.0018488
0.00184289
0.00183845
0.00180462
0.00176993
0.00168971
0.00159129
0.00143696
0.00125527
0.00102251
0.000756466
0.000377619
-0.000222624
-0.00136829
-0.0036081
-0.00863544
0.00147457
0.00173112
0.00190444
0.00200618
0.00203514
0.00199915
0.0019348
0.00186866
0.00182813
0.00179954
0.00177747
0.00176986
0.00178112
0.00178815
0.00180073
0.00180151
0.00179354
0.00176239
0.00171474
0.00162966
0.00151386
0.00134742
0.00114152
0.000882433
0.000567662
0.000129087
-0.000562531
-0.00178863
-0.00412647
-0.00915169
0.00161575
0.00169079
0.00188892
0.00197687
0.00201995
0.00197921
0.00193239
0.00187014
0.00182481
0.00179175
0.0017684
0.00176644
0.00176251
0.00176174
0.00177384
0.00176167
0.00175481
0.00171064
0.0016593
0.00156388
0.00144523
0.00126089
0.00101327
0.000651089
0.000197243
-0.000337006
-0.000912255
-0.00169289
-0.00323667
-0.00786981
0.00155487
0.00183125
0.00186465
0.00199097
0.00196259
0.0020063
0.00190212
0.00189861
0.00181033
0.00180692
0.00174628
0.00173846
0.00172046
0.00172287
0.00173124
0.00172786
0.00171965
0.00167856
0.0015956
0.00151225
0.00136462
0.00119998
0.000916727
0.000528354
-0.00019884
-0.00131106
-0.00284803
-0.00470614
-0.00677925
-0.0058532
0.00172412
0.00177334
0.00187215
0.00193016
0.00195701
0.00196076
0.00193473
0.00188519
0.00184693
0.00180688
0.00175029
0.00170306
0.00168119
0.00167089
0.00167579
0.00166905
0.00165525
0.00161035
0.00154359
0.00144348
0.00130545
0.00111044
0.000842186
0.000486416
6.28133e-05
-0.00041446
-0.000998524
-0.00194787
-0.00401663
-0.00925387
0.00173512
0.00179293
0.00189222
0.00193613
0.00195621
0.00194116
0.00191607
0.00187134
0.00182375
0.00177956
0.00173239
0.00170551
0.00166963
0.00163944
0.00163244
0.00161001
0.00160021
0.00155065
0.00149129
0.00138163
0.00124892
0.00105576
0.000824831
0.000508061
9.19343e-05
-0.000580205
-0.00164534
-0.00344936
-0.00651674
-0.0123799
0.00176314
0.0018724
0.00190806
0.00192356
0.00192712
0.00191195
0.00189654
0.0018642
0.00183212
0.00177547
0.00171361
0.0016605
0.00161492
0.00159691
0.00157931
0.00157054
0.00154268
0.00150098
0.00142677
0.00132669
0.00118586
0.00100687
0.000767417
0.000446418
-2.41435e-05
-0.000720479
-0.00179883
-0.00354692
-0.00666137
-0.0126819
0.0018545
0.00188519
0.00190735
0.0019059
0.00189564
0.00188576
0.0018697
0.00184587
0.00181811
0.00177408
0.00170066
0.00162683
0.00158139
0.00155543
0.00154238
0.00152318
0.00149203
0.00144009
0.00136457
0.00125992
0.00112004
0.000935552
0.000689432
0.00034924
-0.000137687
-0.000859484
-0.00198477
-0.00386154
-0.00721371
-0.0135542
0.00186993
0.00192074
0.00193962
0.00192623
0.00189665
0.00186699
0.00183695
0.00180698
0.00176869
0.00172329
0.00166767
0.00161435
0.00156814
0.00153359
0.00150485
0.00147598
0.00143573
0.00137783
0.00129699
0.00118858
0.00104444
0.000853157
0.000595106
0.000238907
-0.000270596
-0.00103348
-0.00224217
-0.00425451
-0.00776991
-0.0142588
0.00192728
0.00196572
0.00196022
0.00192577
0.00187959
0.00183509
0.00179613
0.00176234
0.00172795
0.00169042
0.00164515
0.0015965
0.00154842
0.00150518
0.0014651
0.00142529
0.0013763
0.0013116
0.00122468
0.00111053
0.000959445
0.000758977
0.000487889
0.000112522
-0.000428922
-0.00124498
-0.00253002
-0.00463534
-0.00824505
-0.0147833
0.00196967
0.00199754
0.00197757
0.00192769
0.00186677
0.00181076
0.00176458
0.0017281
0.00169389
0.00165702
0.00161421
0.00156757
0.001519
0.00147096
0.00142303
0.00137327
0.00131523
0.00124261
0.00114838
0.00102648
0.000866659
0.00065482
0.000368048
-3.08321e-05
-0.000606663
-0.00146927
-0.0028103
-0.00497629
-0.00863069
-0.0151864
0.0020117
0.00202824
0.00199947
0.0019344
0.00185729
0.00178809
0.00173273
0.0016904
0.00165373
0.00161786
0.00157763
0.00153324
0.00148473
0.00143336
0.0013787
0.00132006
0.00125264
0.00117098
0.00106808
0.000936922
0.000766493
0.000541334
0.000236797
-0.000185926
-0.000792119
-0.00169065
-0.00307083
-0.00527136
-0.00895344
-0.01553
0.00205495
0.00206286
0.00201579
0.0019361
0.0018465
0.00176531
0.00170055
0.00165163
0.00161281
0.00157731
0.00153892
0.00149568
0.00144679
0.00139215
0.00133153
0.00126449
0.00118772
0.00109622
0.000983521
0.000841631
0.000659124
0.00041939
9.71581e-05
-0.000347106
-0.000977959
-0.00190311
-0.00330791
-0.00552715
-0.00922037
-0.0158035
0.00209488
0.00209089
0.00203269
0.00193954
0.00183657
0.00174368
0.00166967
0.00161464
0.00157265
0.00153601
0.0014979
0.00145487
0.00140488
0.00134705
0.0012808
0.00120579
0.00111965
0.001018
0.000894534
0.000740958
0.000545549
0.000291359
-4.72186e-05
-0.000509701
-0.00116001
-0.00210437
-0.0035246
-0.00575571
-0.0094587
-0.0160532
0.00213243
0.00211935
0.00204898
0.00194296
0.00182725
0.00172256
0.00163892
0.0015769
0.00153099
0.0014927
0.00145422
0.00141052
0.00135893
0.00129775
0.00122621
0.00114365
0.00104831
0.000936214
0.000801447
0.000635754
0.000427526
0.000159667
-0.000193345
-0.000671008
-0.00133675
-0.00229463
-0.00372603
-0.00596602
-0.0096756
-0.0162782
0.00216744
0.00214725
0.00206476
0.0019465
0.00181865
0.00170158
0.00160757
0.00153804
0.00148788
0.00144739
0.00140797
0.00136302
0.00130938
0.00124459
0.00116778
0.00107789
0.000973542
0.000851054
0.00070509
0.000527511
0.000307051
2.66135e-05
-0.000339063
-0.000829407
-0.00150668
-0.00247469
-0.00391505
-0.00616303
-0.00987844
-0.0164822
0.00219631
0.00217045
0.00208249
0.00195371
0.0018116
0.00168088
0.00157571
0.00149872
0.00144361
0.00140056
0.00135928
0.00131271
0.00125638
0.00118786
0.00110555
0.00100859
0.000895391
0.000762984
0.000606168
0.000417423
0.000185472
-0.000106257
-0.000482992
-0.000983573
-0.00166967
-0.00264517
-0.00409236
-0.00634694
-0.0100705
-0.0166852
0.00222385
0.00219215
0.00209795
0.00195914
0.00180406
0.00166059
0.00154468
0.00145969
0.00139895
0.0013523
0.00130844
0.00125956
0.0012002
0.00112762
0.0010398
0.00093588
0.00081424
0.000672393
0.000505422
0.000306269
6.38596e-05
-0.000238005
-0.000624315
-0.00113296
-0.00182584
-0.00280684
-0.00425845
-0.0065167
-0.0102451
-0.0168683
0.00225259
0.00221568
0.00210888
0.00195859
0.00179395
0.00164055
0.00151492
0.00142122
0.00135411
0.00130271
0.00125567
0.00120374
0.0011411
0.00106412
0.000970892
0.000860129
0.000730596
0.000579821
0.000403533
0.000194779
-5.70018e-05
-0.000367894
-0.000761958
-0.00127712
-0.00197519
-0.00296025
-0.00441422
-0.00667235
-0.0103956
-0.0170089
0.00227668
0.00223415
0.00211995
0.00195996
0.00178463
0.00162069
0.00148508
0.0013827
0.00130859
0.00125199
0.00120101
0.00114563
0.00107926
0.000997792
0.000899122
0.000781866
0.000644865
0.000485891
0.000301032
8.36537e-05
-0.000176524
-0.000494922
-0.000895303
-0.00141563
-0.00211766
-0.00310533
-0.00456031
-0.00681801
-0.0105412
-0.0171597
0.00229659
0.00224975
0.00213075
0.00196256
0.00177603
0.00160051
0.00145449
0.00134345
0.00126229
0.00120021
0.00114473
0.00108547
0.00101501
0.000928991
0.000824926
0.000701523
0.000557553
0.000391118
0.000198494
-2.65528e-05
-0.000293849
-0.000618365
-0.00102387
-0.00154821
-0.00225324
-0.00324277
-0.00469873
-0.00695691
-0.010681
-0.0173006
0.00231598
0.00226581
0.00213871
0.00196143
0.00176537
0.00157965
0.00142367
0.00130384
0.00121552
0.00114759
0.0010873
0.00102368
0.00094893
0.0008582
0.000748908
0.000619632
0.000469277
0.000296053
9.65748e-05
-0.000135115
-0.000408253
-0.000737748
-0.00114727
-0.00167473
-0.00238196
-0.00337297
-0.00482988
-0.00708871
-0.0108128
-0.0174313
0.00233201
0.00227813
0.0021453
0.00196002
0.0017544
0.00155852
0.00139272
0.00126413
0.00116845
0.00109444
0.00102898
0.000960707
0.000881412
0.000785949
0.000671552
0.000536775
0.000380563
0.000201282
-4.24345e-06
-0.000241411
-0.000519325
-0.000852796
-0.00126545
-0.00179518
-0.00250386
-0.00349567
-0.00495296
-0.00721208
-0.0109366
-0.0175547
0.00234488
0.0022877
0.00215036
0.00195806
0.00174313
0.00153709
0.00136151
0.00122437
0.00112128
0.00104099
0.000970053
0.000896884
0.000812873
0.000712695
0.000593367
0.000453476
0.000291947
0.000107324
-0.000103313
-0.000345013
-0.000626821
-0.000963429
-0.00137845
-0.00190967
-0.00261901
-0.00361065
-0.00506715
-0.00732533
-0.0110502
-0.0176729
0.00235687
0.00229664
0.00215281
0.00195269
0.00172937
0.00151451
0.00133017
0.00118472
0.00107422
0.000987452
0.000910898
0.000832651
0.00074389
0.000639018
0.000514992
0.000370339
0.000204061
1.47625e-05
-0.000200089
-0.000445512
-0.000730431
-0.00106948
-0.00148615
-0.00201821
-0.00272748
-0.00371814
-0.00517277
-0.0074283
-0.0111499
-0.0177703
0.00236662
0.0023028
0.00215319
0.00194579
0.00171446
0.00149132
0.00129868
0.00114523
0.0010274
0.000934063
0.000851769
0.000768401
0.000674913
0.000565461
0.000436969
0.00028792
0.000117381
-7.58112e-05
-0.000294133
-0.000542572
-0.000829937
-0.00117079
-0.00158854
-0.00212089
-0.00282959
-0.00381878
-0.005271
-0.00752344
-0.0112423
-0.0178635
0.00237365
0.00230688
0.00215209
0.00193799
0.00169901
0.00146773
0.00126692
0.00110565
0.000980677
0.000880925
0.000792945
0.000704465
0.000606312
0.000492462
0.000359767
0.00020671
3.24927e-05
-0.000163981
-0.000385168
-0.000636025
-0.000925272
-0.00126741
-0.00168576
-0.00221803
-0.00292596
-0.00391378
-0.00536419
-0.00761457
-0.0113312
-0.0179512
0.00237767
0.00230856
0.00214967
0.00192968
0.00168334
0.00144393
0.00123498
0.00106614
0.000934259
0.000828308
0.000734734
0.000641249
0.000538556
0.000420547
0.000283965
0.000127311
-5.00771e-05
-0.000249303
-0.000472848
-0.00072562
-0.0010163
-0.0013593
-0.00177796
-0.00230995
-0.00301713
-0.00400383
-0.00545309
-0.00770292
-0.011421
-0.0180449
0.00237933
0.0023082
0.00214559
0.00192016
0.00166691
0.0014198
0.0012031
0.001027
0.000888463
0.000776524
0.000677544
0.000579229
0.000472198
0.000350288
0.00021014
5.0373e-05
-0.000129731
-0.00033127
-0.00055675
-0.000811038
-0.00110279
-0.00144639
-0.00186517
-0.00239686
-0.00310341
-0.00408932
-0.00553786
-0.00778728
-0.0115054
-0.0181298
0.0023801
0.00230666
0.00213971
0.00190868
0.00164909
0.00139519
0.00117146
0.000988498
0.000843621
0.000725927
0.000621778
0.00051885
0.000407737
0.000282232
0.000138968
-2.35132e-05
-0.000205954
-0.000409468
-0.000636541
-0.000892044
-0.00118461
-0.00152862
-0.00194741
-0.00247877
-0.00318474
-0.00416993
-0.00561769
-0.00786632
-0.0115835
-0.0182071
0.00237886
0.00230324
0.00213243
0.00189633
0.00163084
0.00137055
0.00114029
0.000950923
0.000800074
0.000676936
0.000567908
0.000460656
0.00034578
0.00021703
7.09813e-05
-9.39092e-05
-0.000278402
-0.000483611
-0.000712008
-0.000968472
-0.00126163
-0.00160588
-0.00202457
-0.00255552
-0.00326081
-0.00424508
-0.00569171
-0.00793902
-0.0116549
-0.0182781
0.00237602
0.00229849
0.00212426
0.00188352
0.00161252
0.00134623
0.00110983
0.000914525
0.000758127
0.000629937
0.000516383
0.000405149
0.00028683
0.00015513
6.55853e-06
-0.000160484
-0.000346778
-0.000553435
-0.000782922
-0.00104012
-0.00133368
-0.001678
-0.00209643
-0.00262681
-0.00333123
-0.00431438
-0.0057597
-0.00800566
-0.0117205
-0.0183437
0.00237197
0.0022927
0.00211533
0.00187034
0.00159428
0.00132248
0.00108043
0.000879666
0.000718164
0.000585345
0.000467663
0.000352805
0.000231355
9.69822e-05
-5.38541e-05
-0.0002228
-0.000410658
-0.000618538
-0.000848906
-0.00110665
-0.00140044
-0.00174466
-0.00216269
-0.00269237
-0.00339583
-0.00437782
-0.00582189
-0.00806672
-0.0117809
-0.0184043
0.00236708
0.00228621
0.00210595
0.0018571
0.00157646
0.00129966
0.0010525
0.000846765
0.000680643
0.000543646
0.000422257
0.000304144
0.000179885
4.31219e-05
-0.000109721
-0.00028033
-0.000469526
-0.000678429
-0.000909502
-0.00116764
-0.00146151
-0.00180554
-0.00222311
-0.00275208
-0.00345462
-0.00443555
-0.00587851
-0.00812237
-0.011836
-0.0184597
0.00236169
0.00227939
0.00209653
0.00184419
0.00155944
0.00127818
0.00102647
0.000816306
0.000646074
0.000505372
0.000380708
0.000259717
0.000132975
-5.8981e-06
-0.000160499
-0.000332548
-0.000522886
-0.00073264
-0.000964275
-0.0012227
-0.00151659
-0.00186041
-0.00227756
-0.00280593
-0.00350772
-0.00448776
-0.00592977
-0.00817272
-0.0118857
-0.0185096
0.00235631
0.00227276
0.00208756
0.00183211
0.00154374
0.00125855
0.00100284
0.000788826
0.000615064
0.000471192
0.000343709
0.000220237
9.13297e-05
-4.93868e-05
-0.000205522
-0.000378821
-0.00057014
-0.000780617
-0.00101272
-0.00127136
-0.00156527
-0.00190891
-0.00232573
-0.00285365
-0.00355489
-0.00453435
-0.00597575
-0.0082181
-0.0119305
-0.0185545
0.00235109
0.0022666
0.00207955
0.00182152
0.00153003
0.00124141
0.000982238
0.000764971
0.000588294
0.000441874
0.00031213
0.000186639
5.59462e-05
-8.63039e-05
-0.000243726
-0.000418069
-0.000610208
-0.000821276
-0.00105375
-0.00131256
-0.00160646
-0.00194994
-0.00236651
-0.00289411
-0.00359502
-0.00457417
-0.00601536
-0.00825772
-0.0119705
-0.0185952
0.0023468
0.00226127
0.0020727
0.00181259
0.00151858
0.0012272
0.000965318
0.000745609
0.000566841
0.000418626
0.000287262
0.000160273
2.82134e-05
-0.000115226
-0.000273642
-0.000448783
-0.00064153
-0.000853017
-0.00108572
-0.0013446
-0.00163841
-0.00198171
-0.00239801
-0.00292533
-0.00362597
-0.00460493
-0.00604608
-0.00828858
-0.0120017
-0.0186267
0.00234535
0.002259
0.0020677
0.00180393
0.0015065
0.00121255
0.000948825
0.000727631
0.000547486
0.000397821
0.000264892
0.000136246
2.55589e-06
-0.000142395
-0.000302139
-0.000478411
-0.000672089
-0.000884313
-0.00111756
-0.00137679
-0.00167076
-0.00201403
-0.00243011
-0.00295699
-0.003657
-0.00463515
-0.00607543
-0.00831729
-0.0120308
-0.0186592
0.014283
0.0139856
0.0124978
0.0103275
0.00753316
0.00424453
0.000626169
-0.00296011
-0.00579601
-0.00723763
-0.00730228
-0.00654322
-0.00553418
-0.00460151
-0.00387315
-0.00336801
-0.00305147
-0.00287153
-0.00277944
-0.00273741
-0.0027193
-0.00270869
-0.00269644
-0.00267852
-0.00265412
-0.0026243
-0.00259093
-0.00255604
-0.00252137
-0.00248821
-0.00245734
-0.00242912
-0.00240359
-0.00238062
-0.00236001
-0.00234154
-0.00232506
-0.00231043
-0.00229754
-0.0022863
-0.00227663
-0.00226843
-0.00226159
-0.002256
-0.00225156
-0.00224816
-0.00224571
-0.00224413
-0.00224338
-0.0022434
-0.00224416
-0.00224564
-0.0022478
-0.00225064
-0.00225412
-0.00225823
-0.00226295
-0.00226824
-0.00227409
-0.00228047
-0.00228736
-0.00229475
-0.0023026
-0.00231092
-0.00231966
-0.00232883
-0.00233841
-0.00234838
-0.00235872
-0.00236942
-0.00238048
-0.00239187
-0.00240359
-0.00241562
-0.00242796
-0.00244059
-0.00245351
-0.00246671
-0.00248018
-0.00249393
-0.00250793
-0.00252219
-0.00253669
-0.00255143
-0.00256641
-0.00258162
-0.00259705
-0.0026127
-0.00262856
-0.00264463
-0.0026609
-0.00267737
-0.00269404
-0.00271089
-0.00272794
-0.00274517
-0.00276257
-0.00278015
-0.00279789
-0.00281581
-0.00283388
-0.00285212
-0.00287051
-0.00288906
-0.00290775
-0.0029266
-0.00294559
-0.00296473
-0.002984
-0.00300342
-0.00302297
-0.00304266
-0.00306248
-0.00308243
-0.00310251
-0.00312272
-0.00314305
-0.00316351
-0.00318409
-0.00320479
-0.00322562
-0.00324656
-0.00326762
-0.00328879
-0.00331007
-0.00333146
-0.00335296
-0.00337457
-0.00339628
-0.0034181
-0.00344001
-0.00346203
-0.00348414
-0.00350635
-0.00352865
-0.00355105
-0.00357354
-0.00359613
-0.0036188
-0.00364157
-0.00366442
-0.00368736
-0.00371038
-0.00373348
-0.00375666
-0.00377993
-0.00380327
-0.0038267
-0.00385021
-0.00387381
-0.00389749
-0.00392125
-0.00394509
-0.00396902
-0.00399301
-0.00401709
-0.00404124
-0.00406547
-0.00408976
-0.00411413
-0.00413856
-0.00416307
-0.00418764
-0.00421228
-0.00423698
-0.00426176
-0.00428659
-0.00431149
-0.00433646
-0.00436149
-0.00438659
-0.00441176
-0.00443698
-0.00446228
-0.00448763
-0.00451306
-0.00453853
-0.00456408
-0.00458968
-0.00461534
-0.00464105
-0.00466683
-0.00469265
-0.00471854
-0.00474447