/*--------------------------------*- C++ -*----------------------------------*\
| =========                 |                                                 |
| \\      /  F ield         | OpenFOAM: The Open Source CFD Toolbox           |
|  \\    /   O peration     | Version:  v2006                                 |
|   \\  /    A nd           | Website:  www.openfoam.com                      |
|    \\/     M anipulation  |                                                 |
\*---------------------------------------------------------------------------*/
FoamFile
{
    version     2.0;
    format      ascii;
    class       surfaceScalarField;
    location    "2.1";
    object      phi;
}
// * * * * * * * * * * * * * * * * * * * * * * * * * * * * * * * * * * * * * //

dimensions      [0 3 -1 0 0 0 0];
oriented        oriented;


internalField   nonuniform List<scalar> 
52390
(
1.17004e-06
-3.19229e-07
1.17007e-06
2.80073e-07
1.17314e-06
-2.56386e-07
1.17328e-06
2.17919e-07
1.17678e-06
-2.08235e-07
1.1769e-06
1.68218e-07
1.18032e-06
-1.67624e-07
1.1802e-06
1.29291e-07
1.18342e-06
-1.35209e-07
1.1831e-06
9.86056e-08
1.18611e-06
-1.09764e-07
1.18557e-06
7.46336e-08
1.18841e-06
-8.92833e-08
1.18763e-06
5.61267e-08
1.19033e-06
-7.25667e-08
1.18931e-06
4.18782e-08
1.19191e-06
-5.89327e-08
1.19057e-06
3.08986e-08
1.19313e-06
-4.78e-08
1.19138e-06
2.24657e-08
1.19398e-06
-3.85732e-08
1.19166e-06
1.60608e-08
1.19438e-06
-3.05436e-08
1.19129e-06
1.12596e-08
1.19421e-06
-2.25858e-08
1.19028e-06
7.4154e-09
1.19284e-06
-1.1524e-08
1.1866e-06
4.41481e-09
1.18214e-06
1.86512e-08
2.36594e-08
1.15365e-06
1.2271e-06
-3.22063e-07
1.22766e-06
2.79507e-07
1.23154e-06
-2.60265e-07
1.23223e-06
2.17231e-07
1.23608e-06
-2.12084e-07
1.23653e-06
1.67761e-07
1.23992e-06
-1.71015e-07
1.2402e-06
1.29014e-07
1.2431e-06
-1.38109e-07
1.24332e-06
9.83892e-08
1.2457e-06
-1.12151e-07
1.24594e-06
7.43951e-08
1.24779e-06
-9.11273e-08
1.24814e-06
5.57706e-08
1.24938e-06
-7.3803e-08
1.24998e-06
4.12818e-08
1.25049e-06
-5.94473e-08
1.25148e-06
2.99126e-08
1.25109e-06
-4.74153e-08
1.25266e-06
2.09e-08
1.25112e-06
-3.70321e-08
1.25349e-06
1.36892e-08
1.25045e-06
-2.75095e-08
1.25385e-06
7.86473e-09
1.24898e-06
-1.77145e-08
1.2534e-06
2.98867e-09
1.24636e-06
-4.48214e-09
1.24967e-06
1.10351e-09
1.23779e-06
3.05326e-08
3.89516e-08
1.2225e-06
1.28548e-06
-3.24764e-07
1.28904e-06
2.75956e-07
1.29181e-06
-2.63036e-07
1.29501e-06
2.14029e-07
1.29717e-06
-2.14243e-07
1.30001e-06
1.64917e-07
1.30128e-06
-1.72285e-07
1.30395e-06
1.2635e-07
1.30437e-06
-1.3853e-07
1.30705e-06
9.57066e-08
1.30665e-06
-1.11748e-07
1.30948e-06
7.15618e-08
1.30826e-06
-8.99067e-08
1.31135e-06
5.26835e-08
1.3093e-06
-7.17563e-08
1.31272e-06
3.78666e-08
1.30983e-06
-5.6565e-08
1.3136e-06
2.61488e-08
1.3099e-06
-4.37156e-08
1.31395e-06
1.68426e-08
1.30951e-06
-3.25901e-08
1.31369e-06
9.51336e-09
1.30869e-06
-2.25113e-08
1.3126e-06
3.95346e-09
1.30748e-06
-1.25891e-08
1.3103e-06
1.636e-10
1.30594e-06
-1.23524e-10
1.30352e-06
3.52649e-09
1.30063e-06
3.34238e-08
6.14512e-08
1.27813e-06
1.34585e-06
-3.26512e-07
1.35199e-06
2.69819e-07
1.35318e-06
-2.6423e-07
1.35868e-06
2.08531e-07
1.35889e-06
-2.14451e-07
1.36385e-06
1.59949e-07
1.36297e-06
-1.71401e-07
1.36756e-06
1.21757e-07
1.36577e-06
-1.36738e-07
1.37017e-06
9.13107e-08
1.36763e-06
-1.09213e-07
1.37192e-06
6.72764e-08
1.3688e-06
-8.67849e-08
1.37299e-06
4.84861e-08
1.36943e-06
-6.81898e-08
1.3735e-06
3.37893e-08
1.36964e-06
-5.26971e-08
1.37351e-06
2.2279e-08
1.36949e-06
-3.9697e-08
1.37302e-06
1.33115e-08
1.369e-06
-2.85742e-08
1.37201e-06
6.50487e-09
1.36818e-06
-1.86771e-08
1.37034e-06
1.78661e-09
1.36708e-06
-9.326e-09
1.36751e-06
-2.68275e-10
1.36577e-06
1.61434e-09
1.36055e-06
8.75081e-09
1.36005e-06
3.39229e-08
8.46577e-08
1.33684e-06
1.4086e-06
-3.26762e-07
1.41613e-06
2.62298e-07
1.4157e-06
-2.638e-07
1.42241e-06
2.01813e-07
1.42103e-06
-2.1307e-07
1.42704e-06
1.53944e-07
1.42473e-06
-1.69094e-07
1.43007e-06
1.16417e-07
1.42713e-06
-1.33798e-07
1.43194e-06
8.64987e-08
1.42863e-06
-1.05895e-07
1.43299e-06
6.2914e-08
1.4295e-06
-8.32959e-08
1.43345e-06
4.45401e-08
1.42993e-06
-6.46754e-08
1.43347e-06
3.02506e-08
1.43002e-06
-4.92472e-08
1.43314e-06
1.91571e-08
1.42981e-06
-3.63609e-08
1.43249e-06
1.06318e-08
1.42928e-06
-2.53734e-08
1.43145e-06
4.34397e-09
1.42844e-06
-1.56755e-08
1.42982e-06
4.1055e-10
1.42733e-06
-6.84105e-09
1.42708e-06
-1.67612e-11
1.42553e-06
3.16989e-09
1.42109e-06
1.31897e-08
1.41819e-06
3.68182e-08
1.10598e-07
1.39225e-06
1.47433e-06
-3.25419e-07
1.48193e-06
2.54705e-07
1.4802e-06
-2.62075e-07
1.48693e-06
1.9508e-07
1.48461e-06
-2.1075e-07
1.49055e-06
1.48004e-07
1.48768e-06
-1.66219e-07
1.49279e-06
1.11302e-07
1.48963e-06
-1.30634e-07
1.49407e-06
8.20617e-08
1.49082e-06
-1.02652e-07
1.49471e-06
5.90252e-08
1.49152e-06
-8.01037e-08
1.49496e-06
4.10988e-08
1.49187e-06
-6.15815e-08
1.49494e-06
2.71794e-08
1.49193e-06
-4.62423e-08
1.49468e-06
1.64137e-08
1.49174e-06
-3.34194e-08
1.49415e-06
8.22184e-09
1.49126e-06
-2.24846e-08
1.49324e-06
2.36579e-09
1.49047e-06
-1.29066e-08
1.49174e-06
-8.62819e-10
1.48921e-06
-4.30854e-09
1.48942e-06
-2.32743e-10
1.4865e-06
6.09811e-09
1.48429e-06
1.53984e-08
1.48318e-06
3.79244e-08
6.4218e-08
1.52956e-06
1.54354e-06
-3.22737e-07
1.55035e-06
2.47886e-07
1.54776e-06
-2.59479e-07
1.55377e-06
1.89066e-07
1.55101e-06
-2.07989e-07
1.55633e-06
1.42682e-07
1.55334e-06
-1.63232e-07
1.5579e-06
1.06743e-07
1.55484e-06
-1.27566e-07
1.5588e-06
7.80948e-08
1.55576e-06
-9.96068e-08
1.55929e-06
5.54902e-08
1.55632e-06
-7.71272e-08
1.55953e-06
3.78791e-08
1.55662e-06
-5.86625e-08
1.55959e-06
2.42049e-08
1.5567e-06
-4.33486e-08
1.55943e-06
1.36768e-08
1.55655e-06
-3.05404e-08
1.55899e-06
5.78611e-09
1.55616e-06
-1.96561e-08
1.55812e-06
4.08275e-10
1.55547e-06
-1.02574e-08
1.55657e-06
-1.96153e-09
1.55445e-06
-2.18911e-09
1.55373e-06
4.85611e-10
1.55258e-06
7.24699e-09
1.54767e-06
2.03125e-08
1.54339e-06
4.21997e-08
9.51347e-08
1.51248e-06
1.61648e-06
-3.19086e-07
1.62233e-06
2.42035e-07
1.61914e-06
-2.56294e-07
1.62433e-06
1.83884e-07
1.6213e-06
-2.04962e-07
1.62601e-06
1.37968e-07
1.62295e-06
-1.60166e-07
1.62709e-06
1.02604e-07
1.624e-06
-1.24484e-07
1.62773e-06
7.43682e-08
1.62467e-06
-9.65451e-08
1.62812e-06
5.20401e-08
1.62509e-06
-7.40992e-08
1.62834e-06
3.46295e-08
1.62534e-06
-5.56582e-08
1.6284e-06
2.11373e-08
1.62542e-06
-4.03616e-08
1.62825e-06
1.08435e-08
1.62531e-06
-2.76022e-08
1.62778e-06
3.31479e-09
1.62499e-06
-1.6861e-08
1.62685e-06
-1.45341e-09
1.62436e-06
-7.76597e-09
1.62518e-06
-2.78238e-09
1.62338e-06
-3.92926e-10
1.62202e-06
1.85004e-09
1.62157e-06
7.70088e-09
1.61645e-06
2.54296e-08
1.61167e-06
4.69788e-08
1.31724e-07
1.57508e-06
1.69325e-06
-3.14758e-07
1.69841e-06
2.36876e-07
1.69473e-06
-2.52618e-07
1.69936e-06
1.79254e-07
1.69602e-06
-2.01625e-07
1.70042e-06
1.33575e-07
1.69712e-06
-1.56875e-07
1.70112e-06
9.86079e-08
1.69782e-06
-1.21187e-07
1.70155e-06
7.06421e-08
1.69826e-06
-9.32552e-08
1.7018e-06
4.84948e-08
1.69854e-06
-7.0837e-08
1.70193e-06
3.12405e-08
1.69871e-06
-5.24369e-08
1.70191e-06
1.79365e-08
1.69876e-06
-3.72077e-08
1.70167e-06
7.93238e-09
1.69865e-06
-2.45828e-08
1.7011e-06
8.62476e-10
1.69832e-06
-1.40857e-08
1.70008e-06
-3.20795e-09
1.69761e-06
-5.29584e-09
1.69857e-06
-3.74817e-09
1.69573e-06
2.44751e-09
1.69645e-06
1.13485e-09
1.69127e-06
1.28781e-08
1.69576e-06
2.09412e-08
1.69682e-06
4.5924e-08
8.22834e-08
1.74626e-06
1.77388e-06
-3.09914e-07
1.77878e-06
2.31973e-07
1.7746e-06
-2.48437e-07
1.77905e-06
1.74799e-07
1.77531e-06
-1.97877e-07
1.77969e-06
1.29193e-07
1.77603e-06
-1.53218e-07
1.78012e-06
9.45201e-08
1.77647e-06
-1.17533e-07
1.78035e-06
6.67552e-08
1.77672e-06
-8.96232e-08
1.78046e-06
4.47612e-08
1.77688e-06
-6.72639e-08
1.78044e-06
2.76784e-08
1.77697e-06
-4.89639e-08
1.78029e-06
1.46204e-08
1.77698e-06
-3.38958e-08
1.7799e-06
5.00911e-09
1.77686e-06
-2.15448e-08
1.77916e-06
-1.44201e-09
1.77654e-06
-1.14647e-08
1.77798e-06
-4.6484e-09
1.77581e-06
-3.11727e-09
1.77631e-06
-4.24758e-09
1.77371e-06
5.04184e-09
1.77427e-06
5.72595e-10
1.76816e-06
1.89955e-08
1.77455e-06
1.45499e-08
1.77618e-06
4.42949e-08
2.6508e-08
1.83195e-06
1.85845e-06
-3.04618e-07
1.86348e-06
2.26946e-07
1.85874e-06
-2.43701e-07
1.86333e-06
1.70214e-07
1.85909e-06
-1.9364e-07
1.8637e-06
1.24587e-07
1.85959e-06
-1.49116e-07
1.86394e-06
9.01777e-08
1.85986e-06
-1.13458e-07
1.86401e-06
6.2606e-08
1.86e-06
-8.56087e-08
1.86397e-06
4.07882e-08
1.86007e-06
-6.33689e-08
1.86382e-06
2.39378e-08
1.86011e-06
-4.52616e-08
1.86351e-06
1.12264e-08
1.8601e-06
-3.04841e-08
1.86295e-06
2.15157e-09
1.85999e-06
-1.85789e-08
1.86204e-06
-3.4907e-09
1.85969e-06
-9.1169e-09
1.86066e-06
-5.62107e-09
1.85898e-06
-1.43816e-09
1.85859e-06
-3.85193e-09
1.85739e-06
6.23337e-09
1.85529e-06
2.67925e-09
1.85359e-06
2.06903e-08
1.84857e-06
1.9573e-08
1.83878e-06
5.4084e-08
6.24018e-08
1.80289e-06
1.94711e-06
-2.98886e-07
1.95252e-06
2.21532e-07
1.94718e-06
-2.38359e-07
1.9521e-06
1.65295e-07
1.94732e-06
-1.88857e-07
1.9523e-06
1.19604e-07
1.94771e-06
-1.44526e-07
1.95241e-06
8.54736e-08
1.94789e-06
-1.08935e-07
1.95237e-06
5.81295e-08
1.94797e-06
-8.12076e-08
1.95221e-06
3.65489e-08
1.94801e-06
-5.9175e-08
1.95192e-06
2.00304e-08
1.94804e-06
-4.13855e-08
1.95146e-06
7.80737e-09
1.94804e-06
-2.70642e-08
1.95074e-06
-5.45879e-10
1.94797e-06
-1.58053e-08
1.94965e-06
-5.17651e-09
1.94769e-06
-7.15076e-09
1.94811e-06
-6.0396e-09
1.94699e-06
-3.24257e-10
1.94578e-06
-2.64538e-09
1.94543e-06
6.59261e-09
1.9418e-06
6.30074e-09
1.94276e-06
1.97317e-08
1.9316e-06
3.07369e-08
1.92697e-06
5.87131e-08
9.36387e-08
1.89573e-06
2.04002e-06
-2.92715e-07
2.04599e-06
2.15563e-07
2.03999e-06
-2.32362e-07
2.04537e-06
1.59912e-07
2.04e-06
-1.83487e-07
2.04546e-06
1.14142e-07
2.04036e-06
-1.39421e-07
2.04549e-06
8.03402e-08
2.04052e-06
-1.03959e-07
2.04536e-06
5.32912e-08
2.04058e-06
-7.64371e-08
2.04509e-06
3.20438e-08
2.04065e-06
-5.47305e-08
2.04468e-06
1.59969e-08
2.04071e-06
-3.74215e-08
2.04407e-06
4.4475e-09
2.04077e-06
-2.37645e-08
2.04319e-06
-2.95616e-09
2.04075e-06
-1.33739e-08
2.04196e-06
-6.37938e-09
2.04049e-06
-5.67902e-09
2.0403e-06
-5.85143e-09
2.03964e-06
3.27675e-10
2.03811e-06
-1.1093e-09
2.03736e-06
7.34216e-09
2.03418e-06
9.47834e-09
2.03308e-06
2.08297e-08
2.02603e-06
3.77866e-08
2.01453e-06
7.02126e-08
1.26898e-07
1.98128e-06
2.13738e-06
-2.86094e-07
2.14401e-06
2.08929e-07
2.13731e-06
-2.25661e-07
2.14324e-06
1.53979e-07
2.13725e-06
-1.77494e-07
2.14326e-06
1.08138e-07
2.13762e-06
-1.33784e-07
2.14322e-06
7.47394e-08
2.13779e-06
-9.85331e-08
2.143e-06
4.80851e-08
2.13789e-06
-7.13299e-08
2.14263e-06
2.73019e-08
2.13801e-06
-5.01027e-08
2.1421e-06
1.1904e-08
2.13815e-06
-3.34729e-08
2.14135e-06
1.24736e-09
2.13829e-06
-2.07062e-08
2.14032e-06
-4.97893e-09
2.13833e-06
-1.13868e-08
2.13899e-06
-7.04464e-09
2.138e-06
-4.6819e-09
2.13748e-06
-5.33552e-09
2.1366e-06
1.21222e-09
2.13576e-06
-2.69981e-10
2.13352e-06
9.57398e-09
2.13166e-06
1.13407e-08
2.12603e-06
2.64624e-08
2.132e-06
3.18143e-08
2.15564e-06
4.65752e-08
5.20088e-08
2.23053e-06
2.2394e-06
-2.79007e-07
2.24678e-06
2.01551e-07
2.23932e-06
-2.18205e-07
2.24587e-06
1.47435e-07
2.23922e-06
-1.70841e-07
2.24581e-06
1.01549e-07
2.23963e-06
-1.27606e-07
2.24571e-06
6.86582e-08
2.23985e-06
-9.26764e-08
2.2454e-06
4.25344e-08
2.24001e-06
-6.59418e-08
2.24493e-06
2.23879e-08
2.24022e-06
-4.53905e-08
2.24426e-06
7.86255e-09
2.24047e-06
-2.96855e-08
2.24335e-06
-1.63624e-09
2.24072e-06
-1.80681e-08
2.24219e-06
-6.44889e-09
2.24081e-06
-1.00107e-08
2.24078e-06
-7.01897e-09
2.24045e-06
-4.35241e-09
2.23912e-06
-3.99627e-09
2.23923e-06
1.09445e-09
2.23688e-06
2.0833e-09
2.23627e-06
1.01802e-08
2.23286e-06
1.47543e-08
2.23045e-06
2.88724e-08
2.22341e-06
3.88539e-08
2.20737e-06
6.26141e-08
8.28638e-08
2.17652e-06
2.34631e-06
-2.71438e-07
2.35449e-06
1.93367e-07
2.34623e-06
-2.09946e-07
2.35343e-06
1.40234e-07
2.34609e-06
-1.63502e-07
2.35329e-06
9.43526e-08
2.34657e-06
-1.20886e-07
2.35312e-06
6.21041e-08
2.34687e-06
-8.64228e-08
2.35272e-06
3.66862e-08
2.34712e-06
-6.0347e-08
2.35212e-06
1.73922e-08
2.34744e-06
-4.07118e-08
2.3513e-06
4.00415e-09
2.34783e-06
-2.62155e-08
2.35024e-06
-4.0445e-09
2.34818e-06
-1.60087e-08
2.34897e-06
-7.24448e-09
2.34829e-06
-9.32847e-09
2.34754e-06
-6.26981e-09
2.3479e-06
-4.71111e-09
2.3456e-06
-1.6919e-09
2.347e-06
-3.12693e-10
2.34275e-06
6.33769e-09
2.34445e-06
8.47813e-09
2.33856e-06
2.06405e-08
2.33944e-06
2.79952e-08
2.32463e-06
5.36703e-08
2.31508e-06
7.216e-08
1.07107e-07
2.29084e-06
2.45833e-06
-2.63372e-07
2.46736e-06
1.84337e-07
2.45826e-06
-2.00848e-07
2.46614e-06
1.32353e-07
2.4581e-06
-1.55465e-07
2.46591e-06
8.65523e-08
2.45867e-06
-1.13648e-07
2.46566e-06
5.51162e-08
2.45907e-06
-7.98364e-08
2.46513e-06
3.06246e-08
2.45944e-06
-5.46546e-08
2.46439e-06
1.24394e-08
2.45988e-06
-3.62056e-08
2.46342e-06
4.64801e-10
2.46039e-06
-2.3186e-08
2.46225e-06
-5.89518e-09
2.46079e-06
-1.45551e-08
2.46099e-06
-7.44519e-09
2.46075e-06
-9.08456e-09
2.45978e-06
-5.29739e-09
2.45995e-06
-4.88632e-09
2.45841e-06
-1.46299e-10
2.45818e-06
-9.11872e-11
2.456e-06
8.52091e-09
2.45453e-06
9.95337e-09
2.45137e-06
2.37975e-08
2.44883e-06
3.05381e-08
2.44069e-06
6.1807e-08
2.42252e-06
9.03316e-08
1.41307e-07
2.38832e-06
2.57572e-06
-2.54802e-07
2.58563e-06
1.74432e-07
2.57567e-06
-1.90889e-07
2.58424e-06
1.23786e-07
2.57551e-06
-1.46736e-07
2.58389e-06
7.81741e-08
2.57618e-06
-1.0594e-07
2.58353e-06
4.77609e-08
2.57671e-06
-7.30104e-08
2.58287e-06
2.44655e-08
2.57722e-06
-4.90037e-08
2.58197e-06
7.68068e-09
2.5778e-06
-3.20269e-08
2.58087e-06
-2.61256e-09
2.5784e-06
-2.07116e-08
2.57964e-06
-7.13592e-09
2.57876e-06
-1.36786e-08
2.5785e-06
-7.18558e-09
2.57846e-06
-9.03746e-09
2.57765e-06
-4.49001e-09
2.57694e-06
-4.18087e-09
2.57715e-06
-3.52685e-10
2.57419e-06
2.86402e-09
2.5753e-06
7.41809e-09
2.56985e-06
1.54031e-08
2.5691e-06
2.45406e-08
2.56122e-06
3.84265e-08
2.57822e-06
4.48014e-08
2.61401e-06
5.45431e-08
5.44759e-08
2.70084e-06
2.69875e-06
-2.45725e-07
2.70955e-06
1.63636e-07
2.69872e-06
-1.80062e-07
2.70797e-06
1.14542e-07
2.69857e-06
-1.37342e-07
2.70748e-06
6.92678e-08
2.69937e-06
-9.78339e-08
2.707e-06
4.01368e-08
2.70006e-06
-6.60761e-08
2.70616e-06
1.83697e-08
2.70073e-06
-4.35798e-08
2.7051e-06
3.31763e-09
2.70147e-06
-2.8395e-08
2.70386e-06
-5.00924e-09
2.70213e-06
-1.89783e-08
2.70262e-06
-7.62928e-09
2.70244e-06
-1.35001e-08
2.70152e-06
-6.2616e-09
2.70208e-06
-9.59652e-09
2.70049e-06
-2.90407e-09
2.70101e-06
-4.70211e-09
2.69911e-06
1.55125e-09
2.69883e-06
3.14391e-09
2.69654e-06
9.70402e-09
2.69463e-06
1.73192e-08
2.69172e-06
2.74449e-08
2.68821e-06
4.19398e-08
2.67915e-06
5.3863e-08
2.658e-06
7.56954e-08
8.93186e-08
2.62315e-06
2.82768e-06
-2.36137e-07
2.83938e-06
1.51937e-07
2.82769e-06
-1.68369e-07
2.83759e-06
1.04639e-07
2.82756e-06
-1.27316e-07
2.83694e-06
5.9892e-08
2.82852e-06
-8.94104e-08
2.83631e-06
3.23444e-08
2.82939e-06
-5.91573e-08
2.8353e-06
1.24615e-08
2.83019e-06
-3.84708e-08
2.83411e-06
-6.02801e-10
2.83105e-06
-2.53333e-08
2.83278e-06
-6.74162e-09
2.83173e-06
-1.79267e-08
2.83159e-06
-7.48693e-09
2.83193e-06
-1.38426e-08
2.83054e-06
-4.87738e-09
2.8316e-06
-1.06532e-08
2.82912e-06
-4.28768e-10
2.83105e-06
-6.62272e-09
2.8267e-06
5.89602e-09
2.82992e-06
-7.4277e-11
2.82341e-06
1.62173e-08
2.82695e-06
1.37745e-08
2.81927e-06
3.51256e-08
2.82035e-06
4.08557e-08
2.79976e-06
7.44595e-08
2.79032e-06
8.51359e-08
1.1407e-07
2.76557e-06
2.96281e-06
-2.26046e-07
2.97539e-06
1.39357e-07
2.96286e-06
-1.55848e-07
2.97336e-06
9.41408e-08
2.96279e-06
-1.16741e-07
2.97251e-06
5.0165e-08
2.96392e-06
-8.08157e-08
2.9717e-06
2.45664e-08
2.96502e-06
-5.24808e-08
2.97045e-06
7.03643e-09
2.9661e-06
-3.41293e-08
2.969e-06
-3.49599e-09
2.96705e-06
-2.33841e-08
2.96775e-06
-7.44068e-09
2.96754e-06
-1.77215e-08
2.96683e-06
-6.77218e-09
2.96738e-06
-1.43981e-08
2.96614e-06
-3.63561e-09
2.96674e-06
-1.12519e-08
2.96514e-06
1.17254e-09
2.96534e-06
-6.82151e-09
2.96341e-06
7.82303e-09
2.96322e-06
1.15914e-10
2.96001e-06
1.94295e-08
2.95836e-06
1.54239e-08
2.95583e-06
3.76553e-08
2.95312e-06
4.35683e-08
2.9421e-06
8.54761e-08
2.91663e-06
1.10605e-07
1.51992e-07
2.87871e-06
3.10444e-06
-2.15478e-07
3.11786e-06
1.25934e-07
3.10458e-06
-1.42566e-07
3.11559e-06
8.31285e-08
3.10456e-06
-1.05711e-07
3.11452e-06
4.02074e-08
3.10588e-06
-7.21799e-08
3.11352e-06
1.6933e-08
3.10719e-06
-4.61497e-08
3.11213e-06
2.09384e-09
3.10829e-06
-3.02934e-08
3.11077e-06
-5.97043e-09
3.10902e-06
-2.16395e-08
3.10994e-06
-8.36078e-09
3.10882e-06
-1.66004e-08
3.10987e-06
-7.81575e-09
3.10765e-06
-1.21822e-08
3.11024e-06
-6.22592e-09
3.10557e-06
-6.57899e-09
3.11065e-06
-3.90607e-09
3.1027e-06
1.12811e-09
3.1104e-06
1.19749e-10
3.09976e-06
1.07592e-08
3.10778e-06
1.14097e-08
3.09551e-06
2.76851e-08
3.09893e-06
3.42395e-08
3.08837e-06
5.413e-08
3.1212e-06
5.26441e-08
3.16729e-06
6.45151e-08
5.98767e-08
3.25941e-06
3.2529e-06
-2.04469e-07
3.26711e-06
1.11728e-07
3.25317e-06
-1.28632e-07
3.26458e-06
7.17236e-08
3.25323e-06
-9.43693e-08
3.26324e-06
3.01993e-08
3.25477e-06
-6.37092e-08
3.26202e-06
9.68722e-09
3.25634e-06
-4.04724e-08
3.26038e-06
-1.94278e-09
3.25767e-06
-2.75823e-08
3.25888e-06
-7.18609e-09
3.25849e-06
-2.12519e-08
3.25791e-06
-7.77517e-09
3.25859e-06
-1.72841e-08
3.25723e-06
-6.4508e-09
3.25842e-06
-1.33748e-08
3.25614e-06
-3.94927e-09
3.25823e-06
-8.66613e-09
3.25432e-06
1.14547e-12
3.25763e-06
-2.17534e-09
3.25156e-06
6.18788e-09
3.25531e-06
7.01032e-09
3.24813e-06
1.85848e-08
3.25204e-06
2.37774e-08
3.24583e-06
4.0452e-08
3.24731e-06
5.26466e-08
3.2266e-06
7.33595e-08
3.20304e-06
8.80734e-08
1.01713e-07
3.1612e-06
3.40851e-06
-1.9305e-07
3.42342e-06
9.68174e-08
3.40897e-06
-1.14177e-07
3.42062e-06
6.00726e-08
3.40913e-06
-8.28762e-08
3.41898e-06
2.03495e-08
3.4109e-06
-5.56365e-08
3.41749e-06
3.09782e-09
3.4128e-06
-3.57843e-08
3.41555e-06
-4.68392e-09
3.41435e-06
-2.63896e-08
3.41397e-06
-6.79883e-09
3.41512e-06
-2.24109e-08
3.41302e-06
-5.67345e-09
3.41525e-06
-1.95112e-08
3.41218e-06
-3.38176e-09
3.41532e-06
-1.65149e-08
3.41089e-06
4.78843e-10
3.41491e-06
-1.26804e-08
3.40919e-06
5.71354e-09
3.41424e-06
-7.22092e-09
3.4062e-06
1.42253e-08
3.41214e-06
1.07441e-09
3.40295e-06
2.77774e-08
3.40797e-06
1.87583e-08
3.4017e-06
4.67151e-08
3.4065e-06
4.78523e-08
3.38212e-06
9.77402e-08
3.3551e-06
1.15087e-07
1.46201e-07
3.31061e-06
3.57165e-06
-1.81286e-07
3.58713e-06
8.13311e-08
3.57235e-06
-9.93906e-08
3.58406e-06
4.83557e-08
3.57257e-06
-7.13866e-08
3.58213e-06
1.07936e-08
3.57445e-06
-4.79557e-08
3.58065e-06
-3.10352e-09
3.5762e-06
-3.13316e-08
3.57914e-06
-7.62882e-09
3.57701e-06
-2.42523e-08
3.5786e-06
-8.39554e-09
3.57656e-06
-2.03669e-08
3.57901e-06
-8.12453e-09
3.57509e-06
-1.55941e-08
3.57992e-06
-8.2097e-09
3.57279e-06
-9.38668e-09
3.58139e-06
-8.12099e-09
3.56974e-06
-1.03309e-09
3.58195e-06
-6.49151e-09
3.56655e-06
8.17635e-09
3.5821e-06
-1.32691e-09
3.56346e-06
1.97189e-08
3.57978e-06
1.14579e-08
3.5595e-06
3.90388e-08
3.56971e-06
3.65035e-08
3.55559e-06
6.19768e-08
3.60406e-06
4.92663e-08
3.65614e-06
6.30036e-08
5.83122e-08
3.74403e-06
3.74268e-06
-1.6926e-07
3.75858e-06
6.54343e-08
3.74372e-06
-8.45385e-08
3.75525e-06
3.68271e-08
3.74402e-06
-6.01505e-08
3.75294e-06
1.87022e-09
3.74607e-06
-4.10807e-08
3.7513e-06
-8.33434e-09
3.74799e-06
-2.8023e-08
3.74962e-06
-9.26241e-09
3.7492e-06
-2.38281e-08
3.74838e-06
-7.57674e-09
3.74995e-06
-2.19386e-08
3.74691e-06
-5.08604e-09
3.75082e-06
-1.95003e-08
3.7452e-06
-2.58746e-09
3.75135e-06
-1.55408e-08
3.74334e-06
-1.15984e-10
3.7516e-06
-9.28411e-09
3.74171e-06
3.39043e-09
3.74976e-06
1.28525e-10
3.73912e-06
9.31138e-09
3.74664e-06
1.21998e-08
3.737e-06
2.10962e-08
3.7448e-06
3.1247e-08
3.73797e-06
4.33295e-08
3.73769e-06
6.22595e-08
3.71441e-06
7.25478e-08
3.68399e-06
9.34219e-08
1.07531e-07
3.63477e-06
3.92197e-06
-1.57042e-07
3.93808e-06
4.93259e-08
3.92351e-06
-6.99665e-08
3.93452e-06
2.58174e-08
3.92387e-06
-4.95066e-08
3.93173e-06
-5.98733e-09
3.92595e-06
-3.5301e-08
3.93015e-06
-1.25293e-08
3.92773e-06
-2.56059e-08
3.92871e-06
-1.02445e-08
3.92882e-06
-2.39376e-08
3.92736e-06
-6.1216e-09
3.93013e-06
-2.47056e-08
3.9252e-06
-1.50415e-10
3.93147e-06
-2.5778e-08
3.9228e-06
6.08912e-09
3.93307e-06
-2.58118e-08
3.91976e-06
1.31947e-08
3.93435e-06
-2.38757e-08
3.9163e-06
2.14414e-08
3.93484e-06
-1.84123e-08
3.91301e-06
3.11448e-08
3.93355e-06
-8.34836e-09
3.91133e-06
4.33226e-08
3.93375e-06
8.82662e-09
3.91538e-06
6.16997e-08
3.93626e-06
4.13781e-08
3.89051e-06
1.18297e-07
3.85794e-06
1.25991e-07
1.55307e-07
3.81017e-06
4.10994e-06
-1.44734e-07
4.12604e-06
3.32287e-08
4.11207e-06
-5.59971e-08
4.12238e-06
1.55027e-08
4.11219e-06
-3.93083e-08
4.11954e-06
-1.3341e-08
4.11368e-06
-2.94375e-08
4.11898e-06
-1.78306e-08
4.11388e-06
-2.05107e-08
4.11963e-06
-1.59929e-08
4.11259e-06
-1.68946e-08
4.12093e-06
-1.44627e-08
4.11044e-06
-1.42189e-08
4.12255e-06
-1.22628e-08
4.10825e-06
-1.14702e-08
4.12358e-06
-9.2426e-09
4.10623e-06
-8.46014e-09
4.12404e-06
-4.61495e-09
4.10443e-06
-4.26431e-09
4.12347e-06
2.39275e-09
4.10287e-06
2.19325e-09
4.121e-06
1.30106e-08
4.10069e-06
1.19689e-08
4.11664e-06
2.73654e-08
4.09798e-06
2.74864e-08
4.11612e-06
4.35632e-08
4.10757e-06
4.99252e-08
4.15827e-06
6.76031e-08
4.21034e-06
7.39193e-08
8.52224e-08
4.28042e-06
4.30706e-06
-1.32497e-07
4.32278e-06
1.75173e-08
4.31031e-06
-4.35327e-08
4.31899e-06
6.82303e-09
4.31018e-06
-3.04988e-08
4.31557e-06
-1.87299e-08
4.31142e-06
-2.52878e-08
4.31512e-06
-2.15282e-08
4.31149e-06
-1.68816e-08
4.31598e-06
-2.0481e-08
4.31027e-06
-1.11863e-08
4.31719e-06
-2.13883e-08
4.30833e-06
-5.35069e-09
4.31882e-06
-2.27527e-08
4.30581e-06
1.53163e-09
4.3201e-06
-2.35285e-08
4.30357e-06
8.07443e-09
4.32085e-06
-2.19007e-08
4.30136e-06
1.52245e-08
4.32059e-06
-1.6831e-08
4.29916e-06
2.36163e-08
4.31929e-06
-7.1184e-09
4.29672e-06
3.45411e-08
4.31492e-06
9.16637e-09
4.29298e-06
4.94221e-08
4.31216e-06
2.43858e-08
4.31045e-06
5.16372e-08
4.36138e-06
1.66724e-08
4.40969e-06
2.56096e-08
4.2872e-09
4.49062e-06
4.5138e-06
-1.20528e-07
4.5286e-06
2.71754e-09
4.51946e-06
-3.43883e-08
4.52497e-06
1.31722e-09
4.51795e-06
-2.34793e-08
4.52087e-06
-2.16497e-08
4.51885e-06
-2.32745e-08
4.51961e-06
-2.22807e-08
4.51986e-06
-1.71358e-08
4.51925e-06
-1.98762e-08
4.52108e-06
-1.30112e-08
4.51811e-06
-1.84174e-08
4.52194e-06
-9.18106e-09
4.51656e-06
-1.73736e-08
4.52261e-06
-4.51549e-09
4.51513e-06
-1.60542e-08
4.52266e-06
5.47439e-10
4.51383e-06
-1.30681e-08
4.5218e-06
7.25015e-09
4.51191e-06
-6.94035e-09
4.51897e-06
1.65546e-08
4.50814e-06
3.71511e-09
4.51289e-06
2.97869e-08
4.5043e-06
1.77646e-08
4.51204e-06
4.16772e-08
4.50486e-06
3.15698e-08
4.50852e-06
4.79775e-08
4.47999e-06
4.52016e-08
4.44234e-06
6.32592e-08
6.19377e-08
4.38469e-06
4.73039e-06
-1.08801e-07
4.74458e-06
-1.14754e-08
4.73647e-06
-2.62769e-08
4.7416e-06
-3.81761e-09
4.73509e-06
-1.69599e-08
4.73666e-06
-2.32204e-08
4.73561e-06
-2.22306e-08
4.73488e-06
-2.15469e-08
4.73773e-06
-1.99863e-08
4.73379e-06
-1.59363e-08
4.73962e-06
-1.88404e-08
4.73185e-06
-1.06515e-08
4.74111e-06
-1.84415e-08
4.72947e-06
-5.73556e-09
4.74262e-06
-1.76623e-08
4.72731e-06
-7.43499e-10
4.74319e-06
-1.53366e-08
4.72564e-06
4.48426e-09
4.74279e-06
-9.90196e-09
4.7242e-06
1.16542e-08
4.74125e-06
-4.91439e-10
4.72272e-06
2.22389e-08
4.73989e-06
1.26239e-08
4.72278e-06
3.48736e-08
4.73662e-06
2.78286e-08
4.71439e-06
5.38051e-08
4.7115e-06
5.08684e-08
4.68668e-06
7.00245e-08
4.68022e-06
6.97159e-08
9.43614e-08
4.6478e-06
4.95774e-06
-9.77476e-08
4.96944e-06
-2.31686e-08
4.96705e-06
-2.3889e-08
4.96601e-06
-2.77447e-09
4.96605e-06
-1.69998e-08
4.96121e-06
-1.83815e-08
4.96414e-06
-2.51617e-08
4.9605e-06
-1.79046e-08
4.96497e-06
-2.44643e-08
4.96059e-06
-1.15512e-08
4.96561e-06
-2.38627e-08
4.96016e-06
-5.20038e-09
4.9657e-06
-2.39813e-08
4.95944e-06
5.28176e-10
4.96507e-06
-2.32914e-08
4.95921e-06
5.11218e-09
4.96426e-06
-2.03891e-08
4.95783e-06
1.09125e-08
4.96146e-06
-1.35237e-08
4.95407e-06
1.90361e-08
4.95603e-06
-2.45087e-09
4.94937e-06
2.88986e-08
4.95075e-06
1.1244e-08
4.94707e-06
3.85569e-08
4.94748e-06
2.742e-08
4.94929e-06
5.19963e-08
4.94715e-06
5.3003e-08
4.91866e-06
9.8514e-08
4.87517e-06
1.13211e-07
1.30912e-07
4.83862e-06
5.19567e-06
-8.70998e-08
5.20697e-06
-3.44714e-08
5.20262e-06
-1.95328e-08
5.20674e-06
-6.89464e-09
5.19822e-06
-8.4812e-09
5.20486e-06
-2.50227e-08
5.1955e-06
-1.58082e-08
5.2063e-06
-2.87023e-08
5.19381e-06
-1.19768e-08
5.20847e-06
-2.6204e-08
5.19175e-06
-7.14443e-09
5.21015e-06
-2.3602e-08
5.18948e-06
-3.31191e-09
5.21151e-06
-2.15023e-08
5.18776e-06
4.61436e-10
5.21153e-06
-1.86594e-08
5.18707e-06
4.06948e-09
5.2107e-06
-1.27113e-08
5.18676e-06
1.04095e-08
5.20941e-06
-3.6089e-09
5.18677e-06
2.0188e-08
5.20565e-06
1.00147e-08
5.18233e-06
3.45707e-08
5.19292e-06
2.79604e-08
5.17274e-06
4.76055e-08
5.18441e-06
4.03201e-08
5.19027e-06
4.7142e-08
5.26245e-06
2.63391e-08
5.34942e-06
2.62419e-08
2.69912e-08
5.45334e-06
5.44555e-06
-7.74592e-08
5.45217e-06
-4.10881e-08
5.45591e-06
-2.32819e-08
5.45021e-06
-1.18904e-09
5.45554e-06
-1.38096e-08
5.44614e-06
-1.5628e-08
5.45255e-06
-2.22128e-08
5.44583e-06
-2.19872e-08
5.45206e-06
-1.82096e-08
5.44697e-06
-2.11108e-08
5.45184e-06
-1.20122e-08
5.44778e-06
-1.95478e-08
5.45089e-06
-6.41661e-09
5.44658e-06
-1.71902e-08
5.44858e-06
-1.53913e-09
5.44419e-06
-1.42674e-08
5.44463e-06
3.62623e-09
5.44149e-06
-9.57057e-09
5.44261e-06
9.28358e-09
5.43875e-06
2.57284e-10
5.43931e-06
1.96223e-08
5.43523e-06
1.4103e-08
5.43557e-06
3.42286e-08
5.43358e-06
2.99526e-08
5.43479e-06
4.63861e-08
5.43407e-06
4.10499e-08
5.42345e-06
5.77549e-08
5.39717e-06
5.26245e-08
5.35865e-06
6.4754e-08
6.48981e-08
5.32075e-06
5.70691e-06
-6.84092e-08
5.71277e-06
-4.69522e-08
5.7149e-06
-2.54136e-08
5.71525e-06
-1.53238e-09
5.71499e-06
-1.35486e-08
5.71085e-06
-1.14919e-08
5.71105e-06
-2.24084e-08
5.70723e-06
-1.81669e-08
5.71134e-06
-2.23272e-08
5.70772e-06
-1.74858e-08
5.71325e-06
-1.75461e-08
5.70737e-06
-1.36616e-08
5.71356e-06
-1.26068e-08
5.70627e-06
-9.89964e-09
5.71346e-06
-8.73769e-09
5.70471e-06
-5.5106e-09
5.71224e-06
-3.90998e-09
5.70205e-06
6.26713e-10
5.70711e-06
4.21888e-09
5.69783e-06
9.53772e-09
5.70247e-06
1.49878e-08
5.69552e-06
2.10466e-08
5.7006e-06
2.91466e-08
5.69354e-06
3.70162e-08
5.69382e-06
4.61054e-08
5.68135e-06
5.35216e-08
5.67645e-06
6.26516e-08
5.65931e-06
6.97637e-08
5.64438e-06
7.96856e-08
8.78013e-08
5.62148e-06
5.98103e-06
-6.02484e-08
5.98131e-06
-4.7235e-08
5.9888e-06
-3.28987e-08
5.98771e-06
-4.4368e-10
5.99015e-06
-1.59832e-08
5.98174e-06
-3.08407e-09
5.98752e-06
-2.81933e-08
5.97899e-06
-9.6347e-09
5.98815e-06
-3.14856e-08
5.9793e-06
-8.63261e-09
5.98849e-06
-2.6744e-08
5.97963e-06
-4.80259e-09
5.98735e-06
-2.03175e-08
5.97886e-06
-1.41284e-09
5.9832e-06
-1.30833e-08
5.97582e-06
1.86911e-09
5.97862e-06
-6.7074e-09
5.97295e-06
6.29803e-09
5.97571e-06
1.4614e-09
5.97063e-06
1.46149e-08
5.97349e-06
1.21246e-08
5.96884e-06
2.56995e-08
5.9724e-06
2.55912e-08
5.96734e-06
4.20711e-08
5.96684e-06
4.66052e-08
5.95494e-06
6.5421e-08
5.94879e-06
6.88034e-08
5.93189e-06
8.66688e-08
5.91921e-06
9.2362e-08
1.02791e-07
5.90422e-06
6.26824e-06
-5.3e-08
6.26551e-06
-4.45038e-08
6.27628e-06
-4.36741e-08
6.2705e-06
5.34121e-09
6.27873e-06
-2.42129e-08
6.26609e-06
9.5528e-09
6.27581e-06
-3.79155e-08
6.26443e-06
1.74577e-09
6.27605e-06
-4.31016e-08
6.26484e-06
2.58174e-09
6.27602e-06
-3.79295e-08
6.26499e-06
6.23104e-09
6.27513e-06
-3.04624e-08
6.26449e-06
9.22736e-09
6.2735e-06
-2.20934e-08
6.26217e-06
1.3203e-08
6.26849e-06
-1.30256e-08
6.25819e-06
1.65965e-08
6.26348e-06
-3.83361e-09
6.25627e-06
2.18246e-08
6.25961e-06
8.79172e-09
6.25318e-06
3.21289e-08
6.25516e-06
2.36041e-08
6.25284e-06
4.43912e-08
6.26047e-06
3.89805e-08
6.25639e-06
6.95024e-08
6.24744e-06
7.77457e-08
6.21273e-06
1.2138e-07
6.16408e-06
1.4102e-07
1.29496e-07
6.13737e-06
6.56774e-06
-4.5268e-08
6.57731e-06
-5.40773e-08
6.5617e-06
-2.80597e-08
6.58072e-06
-1.36832e-08
6.56143e-06
-4.92608e-09
6.5818e-06
-1.08102e-08
6.55989e-06
-1.60123e-08
6.58162e-06
-1.9985e-08
6.55979e-06
-2.12701e-08
6.58173e-06
-1.93564e-08
6.55981e-06
-1.6006e-08
6.58113e-06
-1.50951e-08
6.56003e-06
-9.35784e-09
6.57988e-06
-1.0623e-08
6.56022e-06
-2.43645e-09
6.57815e-06
-4.7197e-09
6.56052e-06
4.59599e-09
6.57436e-06
2.76195e-09
6.55779e-06
1.27369e-08
6.56644e-06
1.31768e-08
6.55425e-06
2.09762e-08
6.56112e-06
2.5257e-08
6.54795e-06
3.67725e-08
6.55022e-06
4.21222e-08
6.54168e-06
4.75223e-08
6.5693e-06
4.18874e-08
6.60365e-06
4.33902e-08
6.68519e-06
3.98415e-08
6.78531e-06
4.09008e-08
5.86889e-08
6.85612e-06
6.88452e-06
-3.9994e-08
6.87805e-06
-4.76099e-08
6.89037e-06
-4.03799e-08
6.88297e-06
-6.28607e-09
6.89379e-06
-1.57393e-08
6.88342e-06
-4.48175e-10
6.88982e-06
-2.24045e-08
6.88174e-06
-1.19079e-08
6.88696e-06
-2.64871e-08
6.88063e-06
-1.30333e-08
6.88611e-06
-2.14791e-08
6.87936e-06
-8.35426e-09
6.88404e-06
-1.40369e-08
6.87593e-06
-2.50473e-09
6.88039e-06
-6.90428e-09
6.87284e-06
2.83217e-09
6.87718e-06
2.55014e-10
6.87064e-06
9.30271e-09
6.87404e-06
9.33697e-09
6.86917e-06
1.80463e-08
6.87175e-06
1.83974e-08
6.87237e-06
2.46403e-08
6.88618e-06
2.2961e-08
6.899e-06
2.93026e-08
6.91008e-06
3.64372e-08
6.8966e-06
5.53745e-08
6.86923e-06
7.07618e-08
6.81663e-06
9.24355e-08
6.75047e-06
1.07063e-07
8.19177e-08
6.72724e-06
7.21244e-06
-3.32935e-08
7.22457e-06
-5.9743e-08
7.2023e-06
-1.81137e-08
7.22647e-06
-3.04487e-08
7.20285e-06
7.87644e-09
7.22824e-06
-2.58347e-08
7.20235e-06
3.48574e-09
7.22737e-06
-3.69343e-08
7.20361e-06
-2.72091e-09
7.22572e-06
-3.51466e-08
7.20489e-06
-6.53086e-10
7.224e-06
-2.74657e-08
7.20623e-06
3.74056e-09
7.22158e-06
-1.78582e-08
7.20566e-06
9.01264e-09
7.21653e-06
-8.03223e-09
7.20141e-06
1.53699e-08
7.20894e-06
1.77113e-09
7.19779e-06
2.04928e-08
7.20481e-06
1.10302e-08
7.19685e-06
2.63481e-08
7.20179e-06
1.97038e-08
7.1896e-06
3.51502e-08
7.19003e-06
2.88785e-08
7.19022e-06
3.62436e-08
7.22173e-06
2.3864e-08
7.2688e-06
2.3694e-08
7.3524e-06
8.83208e-09