/*--------------------------------*- C++ -*----------------------------------*\
| =========                 |                                                 |
| \\      /  F ield         | OpenFOAM: The Open Source CFD Toolbox           |
|  \\    /   O peration     | Version:  v2006                                 |
|   \\  /    A nd           | Website:  www.openfoam.com                      |
|    \\/     M anipulation  |                                                 |
\*---------------------------------------------------------------------------*/
FoamFile
{
    version     2.0;
    format      ascii;
    class       volVectorField;
    location    "2.1";
    object      U;
}
// * * * * * * * * * * * * * * * * * * * * * * * * * * * * * * * * * * * * * //

dimensions      [0 1 -1 0 0 0 0];


internalField   nonuniform List<vector> 
26400
(
(0.909053 -0.00477749 0)
(1.09186 0.00444204 0)
(0.913079 -0.00426931 0)
(1.09153 0.00386531 0)
(0.919454 -0.00386418 0)
(1.09212 0.00333629 0)
(0.925087 -0.00346933 0)
(1.09265 0.0028646 0)
(0.930039 -0.00312205 0)
(1.09315 0.00243982 0)
(0.934342 -0.00282749 0)
(1.09361 0.00206112 0)
(0.937952 -0.00256519 0)
(1.0941 0.00172815 0)
(0.940829 -0.00232446 0)
(1.09469 0.00143434 0)
(0.942916 -0.00210311 0)
(1.09547 0.00117132 0)
(0.944104 -0.0018979 0)
(1.09654 0.000932529 0)
(0.944227 -0.0016998 0)
(1.098 0.000713128 0)
(0.943047 -0.00148807 0)
(1.09992 0.000507003 0)
(0.940229 -0.00121004 0)
(1.10228 0.000293538 0)
(0.935261 -0.000673199 0)
(1.10458 2.51935e-05 0)
(0.926805 0.00111042 0)
(1.10573 0.000366527 0)
(0.915943 -0.00481802 0)
(1.08604 0.0044442 0)
(0.922484 -0.00433467 0)
(1.08566 0.00386357 0)
(0.930504 -0.00394092 0)
(1.0856 0.00333498 0)
(0.937498 -0.00354957 0)
(1.08508 0.00286655 0)
(0.943791 -0.00320358 0)
(1.08418 0.00244526 0)
(0.949576 -0.0029094 0)
(1.08288 0.00207061 0)
(0.954949 -0.00264675 0)
(1.08114 0.0017423 0)
(0.960038 -0.00240463 0)
(1.07891 0.00145405 0)
(0.964996 -0.00218051 0)
(1.07604 0.00119875 0)
(0.970007 -0.00197077 0)
(1.07232 0.00097211 0)
(0.975306 -0.00176532 0)
(1.06741 0.000772989 0)
(0.981181 -0.00153764 0)
(1.06079 0.00059499 0)
(0.98794 -0.00121621 0)
(1.05177 0.000395462 0)
(0.995774 -0.000549139 0)
(1.03909 0.00021405 0)
(1.00437 0.00201997 0)
(1.02009 0.00151493 0)
(0.928122 -0.00486444 0)
(1.07425 0.00442081 0)
(0.937567 -0.00439675 0)
(1.07359 0.00383671 0)
(0.947705 -0.00400532 0)
(1.07247 0.00330892 0)
(0.956452 -0.00360687 0)
(1.07042 0.0028407 0)
(0.964335 -0.00325044 0)
(1.06765 0.00241593 0)
(0.971647 -0.00294202 0)
(1.06421 0.00203376 0)
(0.978545 -0.00265988 0)
(1.06017 0.00169218 0)
(0.98515 -0.00239044 0)
(1.05555 0.00138229 0)
(0.991532 -0.00212728 0)
(1.05038 0.00109351 0)
(0.997684 -0.00186144 0)
(1.04471 0.000816686 0)
(1.0035 -0.0015766 0)
(1.03866 0.000547689 0)
(1.00875 -0.00124597 0)
(1.0324 0.000288444 0)
(1.01302 -0.000818887 0)
(1.02613 4.78765e-05 0)
(1.01565 -0.000132352 0)
(1.01991 5.70759e-05 0)
(1.01544 0.00216634 0)
(1.01418 0.00376184 0)
(0.943432 -0.00489752 0)
(1.05836 0.00434587 0)
(0.954379 -0.00443098 0)
(1.05722 0.00376046 0)
(0.96563 -0.00402687 0)
(1.05521 0.00323163 0)
(0.97514 -0.00360798 0)
(1.0521 0.00275894 0)
(0.983422 -0.00322898 0)
(1.04832 0.00232434 0)
(0.990747 -0.00289536 0)
(1.04411 0.0019277 0)
(0.997229 -0.00258512 0)
(1.0397 0.00156764 0)
(1.00291 -0.00228467 0)
(1.03528 0.0012366 0)
(1.00777 -0.00198847 0)
(1.03104 0.000926892 0)
(1.01172 -0.00168955 0)
(1.02713 0.000633573 0)
(1.01464 -0.0013743 0)
(1.02366 0.000359713 0)
(1.01643 -0.00102187 0)
(1.02065 0.000119286 0)
(1.01696 -0.000577855 0)
(1.01797 -4.5556e-05 0)
(1.01606 0.000155932 0)
(1.01519 0.000240037 0)
(1.01339 0.00254406 0)
(1.01233 0.00593942 0)
(0.959204 -0.00490932 0)
(1.04141 0.00423134 0)
(0.969565 -0.0044353 0)
(1.03994 0.00364554 0)
(0.980174 -0.00401194 0)
(1.03768 0.0031156 0)
(0.988826 -0.00356895 0)
(1.03458 0.00264035 0)
(0.995925 -0.00316697 0)
(1.03118 0.00220046 0)
(1.00171 -0.002812 0)
(1.02779 0.00179745 0)
(1.00633 -0.00248261 0)
(1.02466 0.00143173 0)
(1.00988 -0.00216556 0)
(1.02193 0.00109767 0)
(1.01243 -0.00185556 0)
(1.01968 0.000789697 0)
(1.01406 -0.00154586 0)
(1.01786 0.000504965 0)
(1.01484 -0.00122315 0)
(1.01637 0.000250978 0)
(1.01483 -0.000868901 0)
(1.01501 4.69969e-05 0)
(1.01407 -0.000459971 0)
(1.01351 -5.32174e-06 0)
(1.01246 2.70894e-05 0)
(1.01144 0.00109536 0)
(1.00989 0.00164963 0)
(1.00916 0.00843245 0)
(0.973058 -0.00489789 0)
(1.02634 0.00410353 0)
(0.981138 -0.00441518 0)
(1.02491 0.0035185 0)
(0.989676 -0.00397503 0)
(1.02309 0.00298975 0)
(0.996315 -0.00351271 0)
(1.02081 0.00251769 0)
(1.00139 -0.00309441 0)
(1.01858 0.00208042 0)
(1.00518 -0.0027264 0)
(1.01659 0.00167993 0)
(1.00788 -0.00238694 0)
(1.01497 0.0013172 0)
(1.0097 -0.00206158 0)
(1.01374 0.00098691 0)
(1.0108 -0.00174376 0)
(1.0128 0.000684395 0)
(1.01131 -0.00142642 0)
(1.01205 0.000409261 0)
(1.01131 -0.00109851 0)
(1.01133 0.000175886 0)
(1.01087 -0.000743119 0)
(1.01045 9.88941e-06 0)
(1.00993 -0.000361339 0)
(1.0092 4.34229e-05 0)
(1.00838 0.000223322 0)
(1.00729 0.00105919 0)
(1.00622 0.00260506 0)
(1.0055 0.00619729 0)
(0.983639 -0.0048658 0)
(1.01489 0.00398398 0)
(0.988743 -0.00437803 0)
(1.01379 0.00340094 0)
(0.994716 -0.00392736 0)
(1.0127 0.00287471 0)
(0.999125 -0.00345214 0)
(1.01143 0.00240865 0)
(1.00229 -0.00302306 0)
(1.0103 0.0019762 0)
(1.00448 -0.00264608 0)
(1.0094 0.00157837 0)
(1.00593 -0.00229819 0)
(1.00874 0.00121555 0)
(1.00683 -0.00196269 0)
(1.00828 0.000881793 0)
(1.00731 -0.00163075 0)
(1.00791 0.000572569 0)
(1.00746 -0.00129418 0)
(1.00754 0.000289128 0)
(1.0073 -0.000942647 0)
(1.00705 4.96417e-05 0)
(1.0068 -0.000546738 0)
(1.00631 -0.000118425 0)
(1.00589 -0.000108117 0)
(1.00516 -0.000106977 0)
(1.0044 0.000769263 0)
(1.00344 0.000589222 0)
(1.00239 0.00409092 0)
(1.00197 0.0046653 0)
(0.99078 -0.00481791 0)
(1.00728 0.00388217 0)
(0.993168 -0.00432945 0)
(1.00658 0.0033011 0)
(0.99691 -0.00387381 0)
(1.00614 0.00277572 0)
(0.999536 -0.00338993 0)
(1.00558 0.00231394 0)
(1.00133 -0.00295257 0)
(1.00513 0.00188363 0)
(1.00253 -0.00256788 0)
(1.0048 0.00148522 0)
(1.00331 -0.00221239 0)
(1.00457 0.00111974 0)
(1.00378 -0.00186864 0)
(1.0044 0.000782615 0)
(1.00402 -0.0015279 0)
(1.00423 0.000472443 0)
(1.00405 -0.00118441 0)
(1.00397 0.000195948 0)
(1.00383 -0.000833739 0)
(1.00356 -2.2261e-05 0)
(1.00331 -0.000465517 0)
(1.00287 -0.000116413 0)
(1.0024 -8.68384e-05 0)
(1.00177 0.000138601 0)
(1.00096 0.000288569 0)
(1.00019 0.0018586 0)
(0.999222 0.00259684 0)
(0.998991 0.0102069 0)
(0.995119 -0.00475863 0)
(1.00277 0.00379642 0)
(0.995539 -0.00427195 0)
(1.00237 0.00321597 0)
(0.997737 -0.00381449 0)
(1.00232 0.00268764 0)
(0.999198 -0.00332368 0)
(1.00214 0.0022262 0)
(1.00016 -0.00287817 0)
(1.00199 0.0017937 0)
(1.00081 -0.00248502 0)
(1.00187 0.00139064 0)
(1.00122 -0.00212081 0)
(1.00179 0.00101938 0)
(1.00146 -0.00176802 0)
(1.0017 0.000677443 0)
(1.00156 -0.00141874 0)
(1.00157 0.000367351 0)
(1.0015 -0.00107006 0)
(1.00134 0.000101134 0)
(1.00123 -0.000714335 0)
(1.00094 -9.82929e-05 0)
(1.00069 -0.000362245 0)
(1.00025 -0.000142123 0)
(0.999778 1.26693e-05 0)
(0.999122 0.000195177 0)
(0.998432 0.000405248 0)
(0.997601 0.00204153 0)
(0.997194 0.00232128 0)
(0.996673 0.010018 0)
(0.99755 -0.00469064 0)
(1.00029 0.00371928 0)
(0.99677 -0.00420593 0)
(1.00008 0.00313783 0)
(0.998057 -0.00374798 0)
(1.00022 0.00260274 0)
(0.998849 -0.00325057 0)
(1.00019 0.0021381 0)
(0.999346 -0.00279597 0)
(1.00014 0.00169962 0)
(0.999668 -0.00239248 0)
(1.00009 0.00128776 0)
(0.999861 -0.00201638 0)
(1.00003 0.000905613 0)
(0.999954 -0.00164939 0)
(0.999952 0.000551878 0)
(0.999945 -0.00128365 0)
(0.999818 0.000232244 0)
(0.999802 -0.000917722 0)
(0.999575 -3.9004e-05 0)
(0.99948 -0.000540511 0)
(0.99915 -0.000237587 0)
(0.998907 -0.000150453 0)
(0.998439 -0.000293319 0)
(0.997982 0.000324968 0)
(0.997306 -0.000107272 0)
(0.996669 0.00138622 0)
(0.995844 0.000761098 0)
(0.995624 0.00391716 0)
(0.995282 0.00263778 0)
(0.998839 -0.0046152 0)
(0.998998 0.00364304 0)
(0.997412 -0.004131 0)
(0.998878 0.00305974 0)
(0.998217 -0.00367314 0)
(0.999098 0.00251553 0)
(0.99865 -0.00316956 0)
(0.999122 0.0020467 0)
(0.998887 -0.00270647 0)
(0.999111 0.00160282 0)
(0.999022 -0.00229497 0)
(0.999068 0.00118567 0)
(0.999077 -0.00191268 0)
(0.99901 0.000801141 0)
(0.999065 -0.00154305 0)
(0.998922 0.000451732 0)
(0.998974 -0.00118141 0)
(0.998772 0.000149294 0)
(0.998769 -0.000829811 0)
(0.998509 -8.86557e-05 0)
(0.998399 -0.000489125 0)
(0.998064 -0.000221463 0)
(0.997792 -0.000150126 0)
(0.997337 -0.000189466 0)
(0.996845 0.000296978 0)
(0.996225 0.000137447 0)
(0.995514 0.00137029 0)
(0.994838 0.0010113 0)
(0.994303 0.00402945 0)
(0.994746 0.00165437 0)
(0.999499 -0.00453277 0)
(0.998347 0.00356195 0)
(0.997751 -0.00404621 0)
(0.99827 0.00297645 0)
(0.998314 -0.00358815 0)
(0.998527 0.00242071 0)
(0.998562 -0.00307737 0)
(0.998571 0.00194547 0)
(0.998658 -0.00260326 0)
(0.998571 0.00149272 0)
(0.998688 -0.00217953 0)
(0.99853 0.00106494 0)
(0.998662 -0.00178443 0)
(0.998465 0.00066997 0)
(0.998585 -0.00140202 0)
(0.998364 0.000313002 0)
(0.998444 -0.00102951 0)
(0.998197 9.67872e-06 0)
(0.9982 -0.000667065 0)
(0.997914 -0.000221675 0)
(0.997803 -0.000327934 0)
(0.997447 -0.000326071 0)
(0.997179 4.89198e-06 0)
(0.996703 -0.000252225 0)
(0.996229 0.00043919 0)
(0.995594 0.000219574 0)
(0.994927 0.00128443 0)
(0.994293 0.00165267 0)
(0.993787 0.0039551 0)
(0.994719 0.0061153 0)
(0.999831 -0.00444367 0)
(0.998028 0.00347296 0)
(0.99793 -0.00395126 0)
(0.997974 0.00288608 0)
(0.998374 -0.00349346 0)
(0.998251 0.00231832 0)
(0.998529 -0.00297676 0)
(0.998306 0.00183825 0)
(0.998551 -0.00249398 0)
(0.998312 0.00138037 0)
(0.998525 -0.00206337 0)
(0.998272 0.000949591 0)
(0.998455 -0.0016656 0)
(0.998203 0.000557631 0)
(0.998341 -0.00128772 0)
(0.998095 0.000214893 0)
(0.99817 -0.000931053 0)
(0.997918 -5.89704e-05 0)
(0.997902 -0.000601685 0)
(0.997624 -0.000237373 0)
(0.997489 -0.00030944 0)
(0.997146 -0.000260984 0)
(0.996856 -2.89863e-05 0)
(0.996395 -5.05586e-05 0)
(0.995916 0.000273576 0)
(0.995295 0.000635143 0)
(0.994674 0.000999838 0)
(0.994113 0.00244539 0)
(0.993866 0.00365042 0)
(0.994729 0.010303 0)
(0.999998 -0.00434772 0)
(0.997877 0.00337373 0)
(0.998028 -0.00384464 0)
(0.997836 0.0027859 0)
(0.998414 -0.00338658 0)
(0.998126 0.00220431 0)
(0.998523 -0.00286317 0)
(0.998189 0.00171808 0)
(0.998508 -0.0023698 0)
(0.998199 0.00125321 0)
(0.998453 -0.00192995 0)
(0.998161 0.000816877 0)
(0.99836 -0.00152599 0)
(0.998091 0.000424427 0)
(0.998228 -0.00114787 0)
(0.997978 9.07689e-05 0)
(0.998043 -0.000798607 0)
(0.997795 -0.000163782 0)
(0.997767 -0.000493946 0)
(0.997492 -0.000301841 0)
(0.997351 -0.000226758 0)
(0.997005 -0.000278618 0)
(0.996725 4.8967e-05 0)
(0.996243 -2.38922e-05 0)
(0.99581 0.000472835 0)
(0.995165 0.000640785 0)
(0.994643 0.00149899 0)
(0.994108 0.00237392 0)
(0.99439 0.00399096 0)
(0.995045 0.00644629 0)
(1.00009 -0.0042449 0)
(0.997803 0.00326321 0)
(0.99809 -0.00372588 0)
(0.99777 0.00267548 0)
(0.998449 -0.00326795 0)
(0.998069 0.00207954 0)
(0.998537 -0.00273913 0)
(0.998138 0.00158858 0)
(0.998503 -0.00223735 0)
(0.998152 0.00112022 0)
(0.998433 -0.00179277 0)
(0.998117 0.000684142 0)
(0.998327 -0.00138978 0)
(0.99805 0.000300658 0)
(0.998184 -0.00102185 0)
(0.997939 -1.14476e-05 0)
(0.997989 -0.000692228 0)
(0.997756 -0.000231643 0)
(0.997707 -0.000420184 0)
(0.997453 -0.000318689 0)
(0.997288 -0.000186424 0)
(0.996969 -0.000249271 0)
(0.996664 8.99617e-05 0)
(0.996228 -2.40455e-05 0)
(0.995762 0.000712744 0)
(0.995201 0.000580421 0)
(0.994663 0.00207283 0)
(0.994229 0.00227318 0)
(0.994211 0.00460782 0)
(0.995495 0.00287652 0)
(1.00014 -0.00413477 0)
(0.997763 0.00313994 0)
(0.99814 -0.00359354 0)
(0.997731 0.00255285 0)
(0.998486 -0.00313554 0)
(0.998036 0.0019411 0)
(0.998566 -0.00260159 0)
(0.998106 0.00144537 0)
(0.998525 -0.00209164 0)
(0.99812 0.000974259 0)
(0.998449 -0.00164329 0)
(0.998085 0.00053996 0)
(0.998341 -0.00124416 0)
(0.998016 0.000169806 0)
(0.998196 -0.000894512 0)
(0.997903 -0.000112883 0)
(0.998002 -0.00060115 0)
(0.997716 -0.000283711 0)
(0.997724 -0.000373913 0)
(0.997409 -0.00030589 0)
(0.997313 -0.000186825 0)
(0.996926 -0.000160695 0)
(0.996696 5.33605e-05 0)
(0.996207 0.000209142 0)
(0.995823 0.000551691 0)
(0.995236 0.00104149 0)
(0.994808 0.00181877 0)
(0.994375 0.00307563 0)
(0.994395 0.00481986 0)
(0.996153 0.00718541 0)
(1.00018 -0.00401782 0)
(0.997744 0.0030044 0)
(0.998176 -0.0034484 0)
(0.997713 0.00242017 0)
(0.998514 -0.00299229 0)
(0.998021 0.00179418 0)
(0.998589 -0.00245726 0)
(0.998094 0.00129842 0)
(0.998543 -0.00194492 0)
(0.998109 0.00083229 0)
(0.998463 -0.00150185 0)
(0.998076 0.000411001 0)
(0.998352 -0.0011204 0)
(0.99801 7.07439e-05 0)
(0.998206 -0.000809294 0)
(0.997898 -0.000162706 0)
(0.998012 -0.00057603 0)
(0.997711 -0.000262977 0)
(0.997737 -0.000410439 0)
(0.997405 -0.000209162 0)
(0.997332 -0.000275373 0)
(0.996929 1.33628e-05 0)
(0.996733 -0.000105537 0)
(0.996222 0.000574154 0)
(0.995896 0.00030383 0)
(0.99531 0.00164226 0)
(0.994985 0.00145683 0)
(0.994634 0.00392193 0)
(0.99491 0.00491056 0)
(0.996365 0.0117316 0)
(1.0002 -0.00389215 0)
(0.997746 0.00285286 0)
(0.998198 -0.0032865 0)
(0.997715 0.00227192 0)
(0.998528 -0.00283197 0)
(0.998029 0.00163055 0)
(0.998601 -0.00229628 0)
(0.998105 0.00113516 0)
(0.99855 -0.00178193 0)
(0.998122 0.000675546 0)
(0.998467 -0.00134478 0)
(0.99809 0.000268613 0)
(0.998355 -0.000981829 0)
(0.998024 -4.14384e-05 0)
(0.998211 -0.000696903 0)
(0.99791 -0.000233723 0)
(0.998022 -0.000503705 0)
(0.997722 -0.000288064 0)
(0.997755 -0.000360483 0)
(0.997415 -0.000215966 0)
(0.99736 -0.000200672 0)
(0.996939 -1.63637e-05 0)
(0.996787 9.08802e-05 0)
(0.996252 0.000422632 0)
(0.995994 0.000746274 0)
(0.995396 0.00143658 0)
(0.995188 0.00224283 0)
(0.994936 0.00351894 0)
(0.995786 0.00497441 0)
(0.996783 0.00698156 0)
(1.00021 -0.00375912 0)
(0.997759 0.00268767 0)
(0.998215 -0.00311111 0)
(0.997729 0.00211138 0)
(0.998538 -0.00265996 0)
(0.99805 0.00145469 0)
(0.998608 -0.00212673 0)
(0.998132 0.000962326 0)
(0.998552 -0.00161522 0)
(0.998152 0.000514419 0)
(0.998465 -0.00119183 0)
(0.998124 0.000131249 0)
(0.998351 -0.000879793 0)
(0.998061 -0.000136477 0)
(0.998206 -0.00064111 0)
(0.997948 -0.000273487 0)
(0.998019 -0.000485939 0)
(0.997762 -0.000282101 0)
(0.997752 -0.000352075 0)
(0.997463 -0.000196791 0)
(0.997361 -0.000158011 0)
(0.997006 -3.64189e-05 0)
(0.996794 0.000258996 0)
(0.996355 0.000288313 0)
(0.996048 0.00114116 0)
(0.995584 0.0012847 0)
(0.99533 0.00296413 0)
(0.995143 0.00331191 0)
(0.995535 0.00513771 0)
(0.997312 0.00276725 0)
(1.00022 -0.00362364 0)
(0.997774 0.00251661 0)
(0.998237 -0.00292998 0)
(0.997738 0.0019548 0)
(0.998556 -0.0024912 0)
(0.998061 0.00129458 0)
(0.998631 -0.00197439 0)
(0.998142 0.000822531 0)
(0.998577 -0.00148329 0)
(0.99816 0.000407386 0)
(0.998492 -0.00109244 0)
(0.998127 7.47467e-05 0)
(0.998383 -0.00079675 0)
(0.99806 -0.000152626 0)
(0.998246 -0.000618615 0)
(0.997943 -0.000235322 0)
(0.998066 -0.000510337 0)
(0.997755 -0.000196171 0)
(0.997807 -0.000405312 0)
(0.997459 -6.03815e-05 0)
(0.997421 -0.000224937 0)
(0.997016 0.000170503 0)
(0.996871 0.000106167 0)
(0.996408 0.000656175 0)
(0.996184 0.000914767 0)
(0.995724 0.0018217 0)
(0.995569 0.00266837 0)
(0.995364 0.00426579 0)
(0.995716 0.00579515 0)
(0.998113 0.00770371 0)
(1.00021 -0.00346184 0)
(0.997809 0.00230081 0)
(0.998243 -0.00270268 0)
(0.997765 0.00173881 0)
(0.998557 -0.0022608 0)
(0.998091 0.0010544 0)
(0.998636 -0.00174252 0)
(0.998172 0.000581286 0)
(0.998582 -0.00125245 0)
(0.998189 0.00017697 0)
(0.9985 -0.000887065 0)
(0.998156 -0.000126457 0)
(0.998393 -0.000631185 0)
(0.998085 -0.00029992 0)
(0.99826 -0.000505143 0)
(0.997966 -0.00031929 0)
(0.998086 -0.00045879 0)
(0.99778 -0.000215657 0)
(0.997834 -0.000431257 0)
(0.99749 1.15693e-05 0)
(0.997458 -0.000353896 0)
(0.997056 0.000440414 0)
(0.996932 -0.000116865 0)
(0.996484 0.0012236 0)
(0.996304 0.000567509 0)
(0.995891 0.00256241 0)
(0.995837 0.00215155 0)
(0.995753 0.00531249 0)
(0.996288 0.00625578 0)
(0.998011 0.0129907 0)
(1.00017 -0.00333263 0)
(0.997878 0.00213401 0)
(0.998224 -0.00252725 0)
(0.997827 0.00160601 0)
(0.998532 -0.00212027 0)
(0.998156 0.000940285 0)
(0.998616 -0.00165098 0)
(0.998239 0.000521379 0)
(0.998563 -0.00121928 0)
(0.998252 0.000192107 0)
(0.998485 -0.000937645 0)
(0.998213 -3.38769e-05 0)
(0.998386 -0.000798605 0)
(0.998136 -0.000110091 0)
(0.998263 -0.000734021 0)
(0.998011 -8.3756e-05 0)
(0.998099 -0.000689286 0)
(0.997819 -8.51377e-07 0)
(0.997859 -0.000598886 0)
(0.997526 0.000137473 0)
(0.997507 -0.000386193 0)
(0.997104 0.000435555 0)
(0.997022 0.000101709 0)
(0.996566 0.00106257 0)
(0.996447 0.00105069 0)
(0.996052 0.00237772 0)
(0.99613 0.00300899 0)
(0.99623 0.00476903 0)
(0.997372 0.00578302 0)
(0.998296 0.00708069 0)
(1.00013 -0.00313388 0)
(0.997961 0.00185637 0)
(0.998203 -0.00223936 0)
(0.997903 0.00132915 0)
(0.998506 -0.00182467 0)
(0.998237 0.000637739 0)
(0.998595 -0.00135367 0)
(0.998322 0.000219634 0)
(0.998544 -0.000911042 0)
(0.998332 -9.45538e-05 0)
(0.998467 -0.000605897 0)
(0.998291 -0.000327134 0)
(0.998372 -0.000422809 0)
(0.998213 -0.000447736 0)
(0.998251 -0.000280078 0)
(0.998091 -0.000519427 0)
(0.998085 -0.00010322 0)
(0.997908 -0.000563679 0)
(0.997843 0.000169248 0)
(0.997633 -0.000576222 0)
(0.997494 0.000560381 0)
(0.997241 -0.000474799 0)
(0.99703 0.00120978 0)
(0.996752 -4.55969e-05 0)
(0.996541 0.00233505 0)
(0.996362 0.00124782 0)
(0.996319 0.00447884 0)
(0.996419 0.0035517 0)
(0.996782 0.00650284 0)
(0.998802 0.00253018 0)
(1.00011 -0.00300114 0)
(0.998029 0.00167692 0)
(0.998208 -0.00205606 0)
(0.997954 0.00119483 0)
(0.99851 -0.00168779 0)
(0.998287 0.00053293 0)
(0.998613 -0.00129008 0)
(0.998369 0.000182139 0)
(0.99857 -0.000950813 0)
(0.998372 -1.82796e-05 0)
(0.9985 -0.000792122 0)
(0.998322 -0.000100222 0)
(0.998413 -0.000770796 0)
(0.99824 -7.03231e-05 0)
(0.998297 -0.000796035 0)
(0.998118 3.58636e-05 0)
(0.998137 -0.000826777 0)
(0.997938 0.000229425 0)
(0.997902 -0.000826937 0)
(0.997666 0.000603009 0)
(0.997567 -0.000748868 0)
(0.997292 0.00114171 0)
(0.997136 -0.000454319 0)
(0.996855 0.00206965 0)
(0.996727 0.000397458 0)
(0.996568 0.00353586 0)
(0.996643 0.00200953 0)
(0.996773 0.00622831 0)
(0.997186 0.00608682 0)
(0.99902 0.0136024 0)
(1.00007 -0.00279818 0)
(0.998121 0.00139745 0)
(0.998198 -0.00176904 0)
(0.998031 0.000940879 0)
(0.998492 -0.00141809 0)
(0.998368 0.000285962 0)
(0.998606 -0.00106182 0)
(0.998448 -3.24508e-05 0)
(0.99857 -0.000768665 0)
(0.998442 -0.000182196 0)
(0.998507 -0.000660232 0)
(0.998385 -0.000225495 0)
(0.998429 -0.000633983 0)
(0.998296 -0.000220181 0)
(0.998322 -0.000603201 0)
(0.998167 -0.000211186 0)
(0.998175 -0.000527161 0)
(0.997981 -0.000171168 0)
(0.997967 -0.000390694 0)
(0.997711 -3.94866e-06 0)
(0.997658 -5.22838e-05 0)
(0.997348 0.000429513 0)
(0.997278 0.000511719 0)
(0.99696 0.00121272 0)
(0.996919 0.00157774 0)
(0.99674 0.00266847 0)
(0.997004 0.00345049 0)
(0.997411 0.00482275 0)
(0.998666 0.00580732 0)
(0.999231 0.00720468 0)
(1.00005 -0.0026478 0)
(0.99821 0.00117926 0)
(0.998205 -0.00155415 0)
(0.998106 0.000773486 0)
(0.998489 -0.00124257 0)
(0.998448 0.000151168 0)
(0.99861 -0.000922387 0)
(0.998532 -0.00011972 0)
(0.998576 -0.000664037 0)
(0.998524 -0.000230383 0)
(0.998514 -0.000553415 0)
(0.998468 -0.000289226 0)
(0.998431 -0.000467574 0)
(0.998386 -0.000347308 0)
(0.998316 -0.000291201 0)
(0.998269 -0.00044968 0)
(0.998161 -2.59058e-05 0)
(0.998098 -0.000573452 0)
(0.997945 0.00037776 0)
(0.997857 -0.000703009 0)
(0.997659 0.000954967 0)
(0.997525 -0.000648231 0)
(0.997304 0.00180086 0)
(0.997191 -0.000200175 0)
(0.997057 0.0031067 0)
(0.997096 0.00122652 0)
(0.997172 0.00537075 0)
(0.997435 0.00335866 0)
(0.997798 0.00648559 0)
(0.999753 0.00092546 0)
(1.00009 -0.00241239 0)
(0.998239 0.000860513 0)
(0.99828 -0.00124897 0)
(0.998109 0.00049742 0)
(0.998558 -0.000980258 0)
(0.998453 -9.62401e-05 0)
(0.998693 -0.000750161 0)
(0.998532 -0.000275456 0)
(0.998667 -0.000596541 0)
(0.998517 -0.000259504 0)
(0.998608 -0.000636565 0)
(0.998459 -0.000169339 0)
(0.998527 -0.000760911 0)
(0.998385 -1.78814e-05 0)
(0.998413 -0.000923064 0)
(0.998273 0.000241883 0)
(0.998258 -0.00105017 0)
(0.998117 0.000575113 0)
(0.998042 -0.00108605 0)
(0.997889 0.000984554 0)
(0.997753 -0.000959979 0)
(0.997595 0.00150656 0)
(0.997441 -0.000467923 0)
(0.997329 0.00233473 0)
(0.997291 0.000522012 0)
(0.997366 0.00374213 0)
(0.997572 0.00249786 0)
(0.997813 0.00689398 0)
(0.9981 0.00734831 0)
(0.999879 0.0135422 0)
(1.00009 -0.00231432 0)
(0.998313 0.00072608 0)
(0.998319 -0.00111937 0)
(0.998153 0.000446079 0)
(0.998586 -0.00092003 0)
(0.998495 -0.000115554 0)
(0.998738 -0.000795763 0)
(0.998573 -0.000232151 0)
(0.998723 -0.000686293 0)
(0.998546 -0.000183051 0)
(0.99867 -0.000722352 0)
(0.998477 -9.96274e-05 0)
(0.998599 -0.000816625 0)
(0.998387 3.64604e-05 0)
(0.998503 -0.000947815 0)
(0.998269 0.000292964 0)
(0.998366 -0.00106634 0)
(0.998107 0.000640831 0)
(0.998172 -0.0011315 0)
(0.997891 0.0011193 0)
(0.997917 -0.00101354 0)
(0.997632 0.0017959 0)
(0.997634 -0.000570471 0)
(0.997416 0.00273399 0)
(0.997532 0.000331533 0)
(0.997585 0.00397565 0)
(0.998121 0.00192496 0)
(0.998765 0.00660556 0)
(0.999785 0.00669061 0)
(0.999306 0.0134936 0)
(1.00004 -0.00203752 0)
(0.998452 0.000341603 0)
(0.998314 -0.000722159 0)
(0.99826 0.000108826 0)
(0.998566 -0.000492358 0)
(0.998602 -0.000449007 0)
(0.998735 -0.000381598 0)
(0.998681 -0.000606894 0)
(0.998725 -0.000212416 0)
(0.998651 -0.000676161 0)
(0.998672 -8.81748e-05 0)
(0.998583 -0.000790807 0)
(0.998602 6.46079e-05 0)
(0.998499 -0.00091946 0)
(0.99851 0.00029277 0)
(0.998381 -0.00105266 0)
(0.998379 0.000563203 0)
(0.998224 -0.00110692 0)
(0.998198 0.000897282 0)
(0.998017 -0.00100774 0)
(0.997964 0.00133097 0)
(0.997779 -0.000655884 0)
(0.997732 0.00198266 0)
(0.997614 0.00011413 0)
(0.997686 0.00305217 0)
(0.997834 0.00122553 0)
(0.998376 0.00410559 0)
(0.99919 0.00167168 0)
(1.00026 0.00349195 0)
(0.999797 0.000112643 0)
(1.00002 -0.0019052 0)
(0.998582 0.000160182 0)
(0.998341 -0.00069857 0)
(0.998351 9.96519e-05 0)
(0.998581 -0.000660384 0)
(0.998686 -0.000304212 0)
(0.998765 -0.000664396 0)
(0.99877 -0.000359221 0)
(0.998758 -0.00055521 0)
(0.998738 -0.000366788 0)
(0.998701 -0.000464846 0)
(0.998673 -0.000438847 0)
(0.998627 -0.000344338 0)
(0.998595 -0.000542194 0)
(0.998529 -0.000171012 0)
(0.998488 -0.00066819 0)
(0.998403 9.61716e-05 0)
(0.998343 -0.000699434 0)
(0.998236 0.00045336 0)
(0.998153 -0.000558171 0)
(0.998034 0.000948101 0)
(0.997947 -0.00011276 0)
(0.997853 0.0016912 0)
(0.997842 0.000737849 0)
(0.997857 0.00273929 0)
(0.998028 0.00184417 0)
(0.998286 0.00345956 0)
(0.998731 0.00155079 0)
(0.999329 0.00188154 0)
(1.00153 0.000166764 0)
(1.00003 -0.00174921 0)
(0.998661 -5.37279e-05 0)
(0.998423 -0.000505314 0)
(0.998384 -3.12789e-05 0)
(0.998649 -0.000272194 0)
(0.998723 -0.000534993 0)
(0.998849 -0.000352037 0)
(0.998812 -0.000615526 0)
(0.998844 -0.000271868 0)
(0.998779 -0.000608942 0)
(0.998784 -0.000217765 0)
(0.998717 -0.00059969 0)
(0.998709 -0.0001776 0)
(0.998643 -0.000565749 0)
(0.99861 -0.000130521 0)
(0.998545 -0.000497349 0)
(0.998489 -6.52546e-05 0)
(0.998412 -0.000357114 0)
(0.998336 0.000103068 0)
(0.998243 -6.23932e-05 0)
(0.998165 0.000484368 0)
(0.998074 0.000482759 0)
(0.998033 0.00117233 0)
(0.998004 0.0013076 0)
(0.998071 0.00205494 0)
(0.998165 0.0023874 0)
(0.998389 0.00320198 0)
(0.998865 0.00385404 0)
(0.999994 0.0049029 0)
(1.00376 0.00611296 0)
(1.00003 -0.00144786 0)
(0.998782 -0.000379705 0)
(0.99849 -0.000304766 0)
(0.998478 -0.000163035 0)
(0.998682 -0.000279371 0)
(0.998787 -0.000430569 0)
(0.998903 -0.000511012 0)
(0.998887 -0.0003948 0)
(0.998904 -0.00060403 0)
(0.998853 -0.000227011 0)
(0.998846 -0.000723725 0)
(0.998789 -2.04901e-05 0)
(0.998775 -0.000881015 0)
(0.998713 0.00020767 0)
(0.998682 -0.00102826 0)
(0.998612 0.000487328 0)
(0.998569 -0.00109198 0)
(0.998488 0.000789134 0)
(0.998433 -0.000964939 0)
(0.998348 0.00119363 0)
(0.998288 -0.000550816 0)
(0.998225 0.00178276 0)
(0.998185 0.000161979 0)
(0.99819 0.00249397 0)
(0.998278 0.00100598 0)
(0.998485 0.00350618 0)
(0.998862 0.00250165 0)
(0.999409 0.0063687 0)
(1.0002 0.00742067 0)
(1.00285 0.0124453 0)
(1.00001 -0.00156949 0)
(0.998902 -0.000266578 0)
(0.998557 -0.0005758 0)
(0.998537 0.000126105 0)
(0.998742 -0.000472204 0)
(0.99885 -0.000217672 0)
(0.998973 -0.000660347 0)
(0.998949 -0.000300169 0)
(0.998987 -0.000669251 0)
(0.998908 -0.000255733 0)
(0.998938 -0.000663924 0)
(0.998834 -0.000201934 0)
(0.998874 -0.000671269 0)
(0.998755 -0.000159992 0)
(0.998794 -0.000662518 0)
(0.998663 -8.77766e-05 0)
(0.998688 -0.000544785 0)
(0.99856 0.000103477 0)
(0.998567 -0.000238032 0)
(0.998452 0.000486745 0)
(0.99845 0.000302233 0)
(0.998361 0.00110159 0)
(0.998366 0.0010571 0)
(0.998344 0.00193495 0)
(0.998514 0.00203009 0)
(0.998724 0.00293702 0)
(0.999463 0.00309479 0)
(1.00063 0.00383674 0)
(1.00226 0.00394776 0)
(1.00291 0.00509839 0)
(0.999974 -0.000939769 0)
(0.999067 -0.000947062 0)
(0.998615 -4.39345e-06 0)
(0.99869 -0.000470577 0)
(0.998741 0.000251229 0)
(0.998968 -0.000883768 0)
(0.998989 0.000107419 0)
(0.999083 -0.00111127 0)
(0.999007 0.000219773 0)
(0.999047 -0.00119432 0)
(0.998954 0.00039467 0)
(0.998976 -0.00127164 0)
(0.998886 0.000569036 0)
(0.998899 -0.00134124 0)
(0.998803 0.000753394 0)
(0.998812 -0.00136149 0)
(0.998718 0.00095216 0)
(0.998725 -0.00123423 0)
(0.998631 0.00121487 0)
(0.99864 -0.000886225 0)
(0.998556 0.00168745 0)
(0.998579 -0.000233454 0)
(0.998533 0.00244206 0)
(0.998624 0.000810682 0)
(0.998706 0.00351464 0)
(0.99897 0.00184016 0)
(0.999278 0.00413404 0)
(0.999805 0.00132104 0)
(1.00073 0.0021088 0)
(1.00408 -0.000456051 0)
(1.00001 -0.00147219 0)
(0.99913 -0.000249441 0)
(0.998755 -0.000850107 0)
(0.998708 0.000480848 0)
(0.998853 -0.00087884 0)
(0.998985 0.000351727 0)
(0.999097 -0.00114647 0)
(0.999115 0.000232214 0)
(0.999124 -0.00118712 0)
(0.999087 0.00024378 0)
(0.999071 -0.0011258 0)
(0.99902 0.000293051 0)
(0.999003 -0.00103657 0)
(0.998949 0.000361935 0)
(0.998926 -0.000927996 0)
(0.998869 0.000459034 0)
(0.998845 -0.000772441 0)
(0.998787 0.000623439 0)
(0.998772 -0.000481758 0)
(0.998738 0.000963288 0)
(0.998737 3.53828e-05 0)
(0.998738 0.00157614 0)
(0.998779 0.000878771 0)
(0.998838 0.00254173 0)
(0.998951 0.00202421 0)
(0.999105 0.00362531 0)
(0.999395 0.00302633 0)
(1.0001 0.00442384 0)
(1.00182 0.00447091 0)
(1.00623 0.00768814 0)
(1.00002 -0.000556773 0)
(0.999233 -0.00133608 0)
(0.998879 3.47729e-06 0)
(0.998796 -0.000577222 0)
(0.998921 0.000450851 0)
(0.999047 -0.000849834 0)
(0.999168 0.000283982 0)
(0.999188 -0.00106489 0)
(0.999201 0.00023141 0)
(0.999167 -0.00111442 0)
(0.999153 0.000283386 0)
(0.999104 -0.00105514 0)
(0.999088 0.00036305 0)
(0.999032 -0.000958636 0)
(0.99901 0.000437675 0)
(0.998959 -0.000835448 0)
(0.998941 0.000543529 0)
(0.998907 -0.000620027 0)
(0.998898 0.000819279 0)
(0.998886 -0.000212589 0)
(0.998903 0.00130372 0)
(0.998931 0.00047272 0)
(0.998999 0.00205581 0)
(0.999097 0.00143288 0)
(0.999242 0.00314325 0)
(0.999438 0.00293822 0)
(0.999755 0.00504406 0)
(1.00049 0.00527468 0)
(1.00224 0.00680988 0)
(1.00672 0.00522324 0)
(1.00002 -0.00114307 0)
(0.99934 -0.00022256 0)
(0.999005 -0.00113873 0)
(0.99891 0.000574388 0)
(0.998993 -0.00101603 0)
(0.999122 0.000732002 0)
(0.999238 -0.00143897 0)
(0.999266 0.000626578 0)
(0.999282 -0.00168013 0)
(0.999254 0.000686781 0)
(0.999242 -0.00167116 0)
(0.999193 0.000806393 0)
(0.999178 -0.00155098 0)
(0.999125 0.000901786 0)
(0.999106 -0.00134908 0)
(0.999054 0.00101543 0)
(0.999045 -0.00107706 0)
(0.999016 0.00118594 0)
(0.999022 -0.000720497 0)
(0.999031 0.00146789 0)
(0.999072 -0.000185541 0)
(0.999125 0.00206279 0)
(0.999217 0.000651821 0)
(0.999362 0.00294109 0)
(0.99961 0.00172917 0)
(0.99997 0.00428432 0)
(1.00043 0.00400366 0)
(1.00098 0.00821678 0)
(1.00189 0.00962524 0)
(1.00518 0.013744 0)
(0.999945 -0.00062307 0)
(0.99943 -0.00104119 0)
(0.999035 -0.00037606 0)
(0.998995 -0.000336646 0)
(0.999025 -7.04744e-06 0)
(0.999173 -0.000289217 0)
(0.999251 -0.000262603 0)
(0.999325 -0.000542645 0)
(0.999318 -0.000464579 0)
(0.999331 -0.000551971 0)
(0.99929 -0.000421365 0)
(0.99928 -0.000446986 0)
(0.99923 -0.0003122 0)
(0.999222 -0.000332232 0)
(0.999164 -0.000147417 0)
(0.999164 -0.000168599 0)
(0.999115 0.000111264 0)
(0.999135 9.57086e-05 0)
(0.999111 0.000455715 0)
(0.999169 0.000495095 0)
(0.999217 0.000949573 0)
(0.99932 0.00112048 0)
(0.999428 0.001768 0)
(0.999592 0.00219134 0)
(0.999875 0.0029738 0)
(1.00043 0.0033033 0)
(1.0015 0.00383697 0)
(1.00299 0.00390435 0)
(1.0048 0.0042251 0)
(1.0045 0.00365252 0)
(0.99986 -0.000527584 0)
(0.999689 -0.000896908 0)
(0.999102 -0.000509087 0)
(0.999262 -0.000269541 0)
(0.999027 -0.000114081 0)
(0.999385 -0.000237807 0)
(0.99924 -0.000298608 0)
(0.999522 -0.000452336 0)
(0.999327 -0.000410943 0)
(0.999535 -0.000506388 0)
(0.999315 -0.00032067 0)
(0.999477 -0.000451941 0)
(0.999265 -0.000164377 0)
(0.999413 -0.000346056 0)
(0.999213 2.09097e-05 0)
(0.99936 -0.000180159 0)
(0.999188 0.000241568 0)
(0.999343 8.7415e-05 0)
(0.999215 0.000550715 0)
(0.999404 0.000550069 0)
(0.999352 0.0010251 0)
(0.99961 0.00109181 0)
(0.999676 0.00161344 0)
(1.00001 0.00177095 0)
(1.00013 0.00239242 0)
(1.00051 0.00275549 0)
(1.00074 0.00375226 0)
(1.00124 0.00437932 0)
(1.00168 0.0054543 0)
(1.00473 0.00596193 0)
(0.99993 -0.000883613 0)
(0.99959 -0.000379561 0)
(0.999239 -0.000934731 0)
(0.999199 0.000136353 0)
(0.999163 -0.000599366 0)
(0.999302 0.00025243 0)
(0.999357 -0.000789003 0)
(0.999462 5.09605e-06 0)
(0.999447 -0.000970007 0)
(0.999501 -5.8348e-05 0)
(0.999437 -0.000905102 0)
(0.999465 3.48457e-05 0)
(0.999389 -0.000733139 0)
(0.999417 0.000195663 0)
(0.99934 -0.000510425 0)
(0.999371 0.000417139 0)
(0.999321 -0.00022682 0)