/*--------------------------------*- C++ -*----------------------------------*\
| =========                 |                                                 |
| \\      /  F ield         | OpenFOAM: The Open Source CFD Toolbox           |
|  \\    /   O peration     | Version:  v2006                                 |
|   \\  /    A nd           | Website:  www.openfoam.com                      |
|    \\/     M anipulation  |                                                 |
\*---------------------------------------------------------------------------*/
FoamFile
{
    version     2.0;
    format      ascii;
    class       volScalarField;
    location    "1.9";
    object      p;
}
// * * * * * * * * * * * * * * * * * * * * * * * * * * * * * * * * * * * * * //

dimensions      [0 2 -2 0 0 0 0];


internalField   nonuniform List<scalar> 
26400
(
2.03047e-08
0.00220817
0.00207075
0.00228931
0.00171348
0.00199669
0.00162724
0.00194767
0.0016501
0.00196387
0.00171119
0.00201722
0.00180422
0.00210636
0.00193138
0.00224178
0.00211562
0.00245578
0.0023959
0.00279383
0.00283029
0.00332662
0.00350547
0.00416044
0.00456172
0.00549071
0.00629697
0.0078659
0.00960901
0.0122424
3.41673e-07
0.00220824
0.0020712
0.00228934
0.00171415
0.0019967
0.00162803
0.00194762
0.00165101
0.00196374
0.00171224
0.00201699
0.00180545
0.00210595
0.00193287
0.00224108
0.00211746
0.00245456
0.00239823
0.00279159
0.00283338
0.00332209
0.00350999
0.00414969
0.0045701
0.0054574
0.00631651
0.00772257
0.00959786
0.011555
1.31443e-06
0.00220853
0.0020721
0.00228947
0.00171541
0.00199666
0.00162953
0.00194743
0.00165276
0.00196338
0.00171428
0.0020164
0.00180786
0.00210504
0.00193571
0.00223965
0.00212083
0.00245235
0.00240223
0.00278812
0.00283804
0.00331638
0.0035153
0.0041398
0.0045766
0.00543893
0.00631243
0.00764401
0.00948175
0.0108957
3.43348e-06
0.00220939
0.00207334
0.00228993
0.00171704
0.00199676
0.00163144
0.0019473
0.001655
0.00196301
0.00171686
0.00201573
0.00181082
0.00210393
0.00193911
0.00223787
0.00212476
0.00244952
0.0024068
0.00278359
0.00284333
0.00330907
0.0035211
0.0041271
0.00458218
0.0054094
0.00631294
0.00752112
0.00925619
0.0103429
7.18736e-06
0.0022107
0.00207492
0.00229059
0.00171898
0.0019969
0.00163365
0.00194712
0.00165756
0.00196249
0.00171975
0.00201478
0.00181408
0.00210238
0.00194281
0.00223544
0.00212898
0.00244577
0.00241167
0.00277781
0.0028488
0.00330014
0.0035267
0.00411212
0.00458511
0.00538125
0.00628094
0.00743041
0.00890791
0.00989474
1.27482e-05
0.00221211
0.00207681
0.00229114
0.00172116
0.00199678
0.00163605
0.0019466
0.00166031
0.00196154
0.00172285
0.00201329
0.00181758
0.00210014
0.00194678
0.00223214
0.00213354
0.00244097
0.00241687
0.00277082
0.00285436
0.0032901
0.00353181
0.00409912
0.00458393
0.00536898
0.00621446
0.00735418
0.0085257
0.00934358
1.99556e-05
0.00221334
0.00207897
0.00229137
0.00172353
0.00199621
0.00163858
0.00194558
0.00166323
0.00196003
0.00172617
0.00201116
0.00182138
0.00209714
0.00195119
0.00222791
0.00213866
0.00243502
0.00242271
0.00276248
0.00286037
0.00327826
0.00353708
0.00408259
0.00458245
0.00532598
0.00618847
0.00718359
0.00836604
0.00893118
2.84743e-05
0.00221428
0.00208136
0.00229121
0.00172608
0.00199513
0.00164124
0.00194402
0.00166636
0.00195797
0.00172981
0.00200842
0.00182561
0.00209343
0.00195616
0.00222281
0.00214446
0.002428
0.00242921
0.00275294
0.00286673
0.00326428
0.00354162
0.00406491
0.0045796
0.00528989
0.00613456
0.00702006
0.0080443
0.00848745
3.79658e-05
0.00221493
0.00208399
0.00229067
0.0017289
0.00199358
0.00164415
0.00194197
0.00166984
0.00195538
0.0017339
0.00200508
0.00183042
0.00208901
0.00196179
0.00221685
0.00215092
0.00242007
0.00243614
0.00274271
0.00287313
0.00325201
0.00354338
0.00404994
0.00455888
0.00528774
0.00601338
0.00692042
0.007403
0.00799768
4.81862e-05
0.00221537
0.00208691
0.00228985
0.00173208
0.00199159
0.00164739
0.00193941
0.00167377
0.00195223
0.00173858
0.00200107
0.00183593
0.00208375
0.00196823
0.00220987
0.00215817
0.00241094
0.00244368
0.00273043
0.00288005
0.00323667
0.00354552
0.00402918
0.00454961
0.00524459
0.00594208
0.00679015
0.00708451
0.0074524
5.90078e-05
0.00221564
0.00209015
0.0022888
0.00173571
0.00198917
0.00165106
0.00193633
0.00167825
0.00194847
0.00174392
0.00199634
0.00184219
0.00207764
0.00197544
0.00220193
0.00216605
0.00240088
0.00245148
0.00271779
0.00288626
0.0032209
0.00354642
0.0040053
0.00453857
0.00517437
0.0059103
0.00662481
0.00716804
0.00683141
7.03984e-05
0.00221575
0.00209376
0.00228753
0.00173988
0.00198631
0.00165522
0.00193267
0.00168336
0.00194402
0.00175
0.0019908
0.00184926
0.00207059
0.00198342
0.00219302
0.00217443
0.00238989
0.00245933
0.00270484
0.00289102
0.00320545
0.00354424
0.00398118
0.00451816
0.00511906
0.00584259
0.00645167
0.00700943
0.00609184
8.23891e-05
0.00221565
0.00209777
0.00228605
0.00174469
0.00198297
0.00165994
0.00192835
0.00168915
0.00193882
0.00175686
0.0019844
0.00185712
0.00206264
0.00199204
0.00218328
0.00218306
0.00237813
0.00246672
0.00269188
0.00289376
0.00319052
0.00353857
0.00396003
0.00448548
0.00507503
0.00573316
0.00626986
0.00654933
0.00567663
9.50546e-05
0.00221526
0.00210221
0.00228432
0.00175021
0.0019791
0.00166527
0.00192331
0.00169567
0.0019328
0.00176452
0.00197714
0.00186571
0.00205391
0.0020011
0.00217305
0.00219159
0.00236688
0.00247272
0.0026798
0.00289346
0.00317646
0.00352354
0.00394526
0.00444184
0.00502573
0.00561197
0.00608077
0.00586426
0.00509028
0.000108503
0.00221443
0.00210711
0.0022823
0.00175657
0.00197461
0.00167129
0.00191745
0.00170299
0.0019259
0.00177302
0.00196899
0.00187501
0.00204439
0.00201048
0.00216227
0.00219991
0.0023557
0.00247733
0.00266811
0.00289141
0.00316133
0.0035116
0.00390899
0.00440585
0.00493957
0.00549758
0.00591104
0.00594154
0.00468756
0.000122872
0.002213
0.00211251
0.00227994
0.00176385
0.00196946
0.00167804
0.00191069
0.00171113
0.00191808
0.00178231
0.00195998
0.00188484
0.00203429
0.00201979
0.00215136
0.00220728
0.00234524
0.00247979
0.00265754
0.00288652
0.00314606
0.00349865
0.00386949
0.00436382
0.00484103
0.00536827
0.00569866
0.00577144
0.0039528
0.000138321
0.00221076
0.00211845
0.00227719
0.00177216
0.00196359
0.00168555
0.00190302
0.00172003
0.00190942
0.00179224
0.00195037
0.0018948
0.00202439
0.00202833
0.00214194
0.00221237
0.00233698
0.00247836
0.00264991
0.0028752
0.00313482
0.00346584
0.0038462
0.00429315
0.00476028
0.00519246
0.00543275
0.00525121
0.00370686
0.000155054
0.00220746
0.00212494
0.002274
0.00178159
0.00195695
0.00169384
0.00189438
0.00172964
0.00189995
0.0018027
0.00194035
0.00190452
0.00201496
0.00203578
0.00213405
0.00221508
0.0023306
0.00247411
0.00264338
0.00286149
0.00312556
0.00342905
0.00381392
0.00421376
0.00466934
0.0050107
0.00512461
0.00439083
0.00320188
0.000173297
0.00220281
0.00213201
0.00227031
0.00179225
0.00194951
0.00170289
0.00188477
0.00173989
0.00188966
0.00181352
0.00193009
0.00191367
0.0020053
0.00204179
0.00212696
0.00221604
0.00232395
0.00246991
0.00263278
0.00285102
0.0030989
0.00340761
0.00375461
0.00414227
0.00452824
0.00484732
0.00496762
0.00463471
0.00285679
0.000193236
0.00219653
0.00213964
0.00226615
0.00180414
0.00194137
0.00171255
0.00187446
0.0017504
0.0018793
0.00182387
0.00192242
0.001922
0.00199853
0.00204568
0.00212181
0.00221469
0.00231826
0.00246362
0.00262198
0.0028409
0.00307274
0.00338243
0.0036857
0.00405872
0.00437151
0.00466074
0.00472998
0.00450259
0.00202605
0.000215336
0.00218819
0.00214789
0.00226136
0.00181746
0.00193235
0.00172292
0.00186313
0.00176127
0.00186813
0.00183376
0.00190994
0.00192999
0.00199145
0.00204814
0.00211743
0.00221106
0.0023136
0.00245263
0.0026121
0.00281842
0.0030556
0.00333439
0.00363364
0.00395118
0.0042298
0.0044046
0.00436628
0.00393223
0.00211317
0.000239592
0.00217752
0.00215659
0.00225616
0.00183199
0.00192298
0.00173339
0.00185191
0.00177148
0.00185927
0.00184188
0.00190621
0.00193282
0.00199073
0.00204414
0.00212049
0.00220041
0.00231857
0.002433
0.00261558
0.0027787
0.00304207
0.00325886
0.00357949
0.00382646
0.00409352
0.00413458
0.00391258
0.00286141
0.00175893
0.000266709
0.00216397
0.00216581
0.00225039
0.00184795
0.00191307
0.00174407
0.0018401
0.00178127
0.00184983
0.00185026
0.00189916
0.00193696
0.00198514
0.00204668
0.0021119
0.00220352
0.00230178
0.0024375
0.00258227
0.00277853
0.00298043
0.00323602
0.00347299
0.00371593
0.00386308
0.00392641
0.00380375
0.00346095
0.00149271
0.00029691
0.00214717
0.00217539
0.00224411
0.00186523
0.00190281
0.00175468
0.00182765
0.00178961
0.00183984
0.00185662
0.00189347
0.00193971
0.00198018
0.00204715
0.00210489
0.00220054
0.0022889
0.00242883
0.00256584
0.00275788
0.00294478
0.0031836
0.00338464
0.00358494
0.00367156
0.00365946
0.00346257
0.00310037
0.001226
0.000330277
0.0021269
0.00218495
0.0022378
0.00188329
0.00189379
0.0017643
0.00181949
0.00179416
0.00183904
0.00185556
0.00189852
0.00193281
0.00198913
0.00203386
0.0021169
0.00217847
0.00230317
0.00238352
0.00257139
0.00269145
0.00293305
0.0030696
0.00331846
0.00342538
0.00353677
0.00333572
0.0028618
0.00163572
0.000940236
0.000367503
0.00210263
0.00219446
0.00223122
0.00190221
0.0018849
0.00177379
0.00180945
0.00179885
0.00183313
0.0018584
0.00189294
0.00193749
0.00197887
0.00204526
0.00209742
0.00219558
0.00227143
0.00240576
0.00251398
0.00268848
0.00284616
0.00304003
0.00317915
0.00328302
0.00327145
0.0031621
0.00292834
0.00254252
0.000682828
0.000409289
0.00207387
0.00220375
0.00222435
0.00192176
0.00187505
0.00178212
0.0018012
0.00180132
0.0018308
0.00185854
0.00189161
0.00193567
0.0019714
0.0020418
0.00208589
0.00219035
0.00224752
0.0023991
0.00247984
0.00268194
0.00277862
0.00298833
0.00304709
0.00313102
0.00301034
0.00284224
0.00255706
0.00229088
0.000497708
0.000454592
0.0020418
0.00221166
0.00221955
0.00194068
0.00187208
0.0017849
0.00179955
0.00179469
0.00183953
0.00184636
0.00190944
0.00191651
0.00200342
0.00200656
0.00212137
0.00213967
0.00228573
0.0023285
0.00250208
0.00257944
0.00276329
0.00285723
0.0029795
0.00295219
0.00281245
0.00235557
0.00162591
0.000637655
0.00100744
0.000504689
0.0020047
0.00221892
0.00221381
0.00196288
0.00186705
0.0017918
0.00179189
0.00179713
0.00183402
0.0018503
0.00190184
0.00191973
0.0019886
0.00200715
0.00210538
0.00213624
0.00226394
0.0023137
0.00246981
0.00254555
0.00270758
0.00277521
0.00287087
0.002817
0.00264971
0.00212375
0.00129085
0.000217562
0.000658629
0.000561008
0.00196012
0.00222374
0.0022058
0.00198177
0.00186507
0.00179672
0.00178502
0.00180025
0.00182666
0.00185865
0.00189041
0.0019334
0.00197076
0.00202765
0.00207649
0.00215263
0.00222237
0.00231762
0.00241063
0.00251878
0.00261494
0.00269735
0.00271706
0.0026903
0.00252783
0.00226184
0.00183119
0.00123662
-0.000902017
0.000620474
0.00192469
0.00222101
0.00221352
0.00199695
0.00186785
0.00179777
0.00178047
0.00179942
0.00182229
0.00186099
0.00188429
0.00193688
0.00196092
0.0020312
0.00205862
0.00214989
0.0021937
0.00229946
0.00236165
0.00246842
0.0025304
0.00259651
0.0025973
0.00255408
0.00243498
0.0022358
0.00174088
0.000642782
-0.00310523
0.000687869
0.00187083
0.00222017
0.00218641
0.00202552
0.00187314
0.00180417
0.00177728
0.00179887
0.00182061
0.00185669
0.00188531
0.00192771
0.00196472
0.00201593
0.00206682
0.00212767
0.00219239
0.00226082
0.00233234
0.00240229
0.00245567
0.00250173
0.00248795
0.00240409
0.00219252
0.00181556
0.00126376
0.000464888
-0.00214342
0.000753357
0.0018394
0.00220075
0.00221405
0.00202024
0.00189154
0.00179282
0.00179202
0.00177845
0.0018386
0.00183163
0.00190878
0.00189876
0.00198931
0.00197828
0.00207784
0.00208398
0.00218047
0.00220299
0.00228654
0.00231772
0.00237615
0.00239775
0.00239079
0.00224717
0.00201007
0.00129827
0.000100238
-0.00155319
-0.00229254
0.000832567
0.00178923
0.00218708
0.00217432
0.00206148
0.00189075
0.00181521
0.00177646
0.00179561
0.00181787
0.0018514
0.00188487
0.00192283
0.00196304
0.00200473
0.00204771
0.00209175
0.00213375
0.00217743
0.00221432
0.00225175
0.00227105
0.00227319
0.00222087
0.00209846
0.00187071
0.00152759
0.00104281
0.000100216
-0.0031437
0.000903674
0.0017622
0.00215504
0.0021924
0.00206003
0.00190854
0.00181758
0.00177892
0.0017895
0.0018132
0.0018453
0.00187818
0.00191502
0.00195117
0.00198993
0.00203046
0.00207079
0.0021118
0.00214173
0.00215912
0.00217423
0.00215695
0.00212903
0.00205237
0.00195347
0.00178326
0.00150955
0.000791833
-0.000898683
-0.00527814
0.000983134
0.00173101
0.00211812
0.00217597
0.00207657
0.00192112
0.00182961
0.00178237
0.00179385
0.00180999
0.0018433
0.00187216
0.00190944
0.00194691
0.00198425
0.00202142
0.00205399
0.00207368
0.00209308
0.00209197
0.00208511
0.00204462
0.00198469
0.00187571
0.0017374
0.00153205
0.00122145
0.000480757
-0.00125136
-0.00568203
0.00107135
0.00171159
0.00207732
0.00214668
0.0020885
0.00192989
0.00184249
0.00178684
0.00179483
0.00180462
0.0018361
0.00186302
0.00189994
0.00193474
0.00196929
0.00200419
0.00202911
0.00204308
0.00204951
0.00202519
0.00199505
0.00192991
0.0018464
0.00169032
0.00144991
0.00107974
0.000622772
5.74803e-05
-0.000856594
-0.00410986
0.0011117
0.00173091
0.00203255
0.00216647
0.00205362
0.00197976
0.00183653
0.00182432
0.00177479
0.00181879
0.00181115
0.00186421
0.00187728
0.00192348
0.00194453
0.00197755
0.00199644
0.00200451
0.00200135
0.0019662
0.00189379
0.00181217
0.00168097
0.0015354
0.00123335
0.000696443
-0.000388633
-0.00188636
-0.00377667
-0.00350473
0.00123796
0.00168376
0.00199979
0.00210297
0.00208304
0.00196424
0.00187691
0.00181793
0.0017953
0.00179942
0.00181706
0.0018461
0.00187696
0.00190594
0.00193402
0.00194813
0.00196501
0.00195595
0.00194058
0.00188552
0.0018065
0.00167095
0.00148537
0.00126269
0.00103305
0.000753925
0.000420265
2.02152e-05
-0.000504178
-0.00340118
0.00125611
0.00173069
0.00195931
0.00212099
0.00204786
0.0020076
0.00186495
0.0018431
0.00178137
0.00180356
0.00180013
0.0018337
0.00185571
0.00188308
0.00190891
0.00192338
0.00193233
0.00191995
0.00187297
0.00182256
0.00172564
0.00161557
0.00145
0.0012505
0.000852942
0.000111983
-0.00114802
-0.00278262
-0.00470532
-0.00410196
0.00137942
0.00168543
0.00193742
0.00205802
0.00206842
0.0019916
0.0019145
0.00184786
0.00180543
0.00178887
0.00179742
0.00181352
0.0018396
0.0018599
0.00187779
0.00188237
0.00188057
0.0018568
0.00181816
0.00175329
0.00166022
0.00152882
0.00134542
0.00108859
0.000772226
0.00043234
9.871e-05
-0.000348447
-0.00158038
-0.00562415
0.00144858
0.00168745
0.00191909
0.00203488
0.00206163
0.00199375
0.00192654
0.00184666
0.00180904
0.00178502
0.00178371
0.00179533
0.00181664
0.00184323
0.0018532
0.00184748
0.00184241
0.001807
0.00176982
0.00168801
0.00158894
0.00143418
0.00125206
0.00101886
0.000752642
0.000374123
-0.000225621
-0.00137084
-0.00361039
-0.00863771
0.00147462
0.00173113
0.00190449
0.0020074
0.00203533
0.00199996
0.00193699
0.00186984
0.00182768
0.00180001
0.00177892
0.00177175
0.00178575
0.00179444
0.00180554
0.00180508
0.00179681
0.00176427
0.00171424
0.00162764
0.00151139
0.00134465
0.00113834
0.000878906
0.000564088
0.000125817
-0.00056534
-0.00179104
-0.00412881
-0.00915408
0.001616
0.00169021
0.00188893
0.00197791
0.00202089
0.00198014
0.00193433
0.00187079
0.00182499
0.00179362
0.00176995
0.00176727
0.00176593
0.00176851
0.00177874
0.0017652
0.00175795
0.00171256
0.00165876
0.00156166
0.00144263
0.00125818
0.00101016
0.000647685
0.000193925
-0.000339911
-0.000914646
-0.00169504
-0.00323889
-0.00787214
0.00155446
0.0018315
0.00186474
0.0019924
0.00196342
0.00200716
0.00190377
0.0018995
0.00181044
0.00180879
0.0017484
0.00174023
0.00172438
0.00172882
0.00173557
0.00173041
0.00172276
0.00168037
0.00159527
0.0015098
0.00136175
0.00119722
0.000913655
0.000524929
-0.000202265
-0.00131412
-0.00285065
-0.00470855
-0.0067816
-0.00585551
0.00172395
0.00177295
0.00187225
0.00193145
0.00195846
0.00196195
0.00193643
0.00188608
0.00184721
0.00180852
0.00175239
0.00170497
0.00168512
0.00167694
0.00168044
0.00167154
0.0016572
0.00161154
0.0015427
0.00144087
0.00130272
0.00110812
0.000839628
0.000483315
5.9734e-05
-0.000416987
-0.00100064
-0.00194992
-0.00401882
-0.00925619
0.00173448
0.00179258
0.00189248
0.00193767
0.00195768
0.00194235
0.00191763
0.00187214
0.00182454
0.00178251
0.00173589
0.00170721
0.00167195
0.00164468
0.00163647
0.00161181
0.00160121
0.00155133
0.00149032
0.00137905
0.00124627
0.00105372
0.000822675
0.000505202
8.88138e-05
-0.00058296
-0.00164763
-0.00345151
-0.006519
-0.0123822
0.00176218
0.00187228
0.00190857
0.00192566
0.00192882
0.0019126
0.00189683
0.00186408
0.00183277
0.00177913
0.00172031
0.00166509
0.0016188
0.00160099
0.00158187
0.00157085
0.00154262
0.0015013
0.00142605
0.00132437
0.00118326
0.00100495
0.000765545
0.000443789
-2.72819e-05
-0.000723281
-0.00180097
-0.00354888
-0.0066636
-0.0126843
0.00185361
0.00188402
0.00190769
0.00190842
0.00189908
0.00188761
0.00186956
0.00184686
0.00181887
0.00177589
0.00170322
0.00162998
0.00158533
0.00155997
0.00154519
0.00152336
0.00149158
0.00144027
0.00136418
0.00125799
0.00111759
0.00093373
0.000687885
0.000347019
-0.000140568
-0.000862153
-0.0019867
-0.00386317
-0.00721573
-0.0135567
0.00186804
0.00191978
0.00194036
0.00192824
0.00189882
0.00186835
0.00183876
0.00180909
0.00177122
0.001727
0.00167243
0.00161776
0.00157071
0.00153675
0.00150723
0.00147597
0.00143478
0.00137752
0.00129652
0.00118676
0.00104193
0.000851179
0.000593578
0.000236894
-0.000273363
-0.00103628
-0.0022444
-0.00425624
-0.00777157
-0.0142605
0.00192506
0.00196445
0.00196088
0.00192817
0.0018827
0.00183812
0.00179925
0.0017649
0.00172978
0.00169307
0.00164835
0.00159854
0.00154981
0.00150742
0.00146718
0.00142545
0.00137532
0.00131107
0.00122424
0.00110897
0.000957054
0.000756948
0.000486448
0.00011082
-0.000431388
-0.00124771
-0.00253225
-0.00463695
-0.00824652
-0.0147851
0.00196782
0.00199571
0.00197734
0.00193013
0.00187062
0.00181454
0.00176809
0.0017305
0.00169534
0.00165915
0.00161708
0.00156958
0.0015203
0.00147291
0.00142493
0.00137356
0.0013143
0.00124194
0.00114799
0.00102528
0.000864551
0.000652869
0.000366746
-3.21122e-05
-0.0006086
-0.00147166
-0.00281243
-0.00497784
-0.00863203
-0.015188
0.00201
0.00202693
0.00199859
0.00193607
0.0018613
0.00179256
0.00173691
0.0016936
0.00165566
0.00161981
0.00158008
0.00153498
0.00148567
0.0014348
0.00138038
0.00132045
0.00125177
0.00117016
0.00106763
0.000935909
0.000764544
0.000539287
0.000235325
-0.000187177
-0.000793842
-0.00169287
-0.00307297
-0.0052731
-0.00895497
-0.0155317
0.00205303
0.002061
0.00201539
0.00193805
0.00185043
0.00176998
0.00170522
0.00165536
0.00161501
0.00157911
0.00154102
0.00149709
0.00144735
0.00139305
0.00133286
0.0012649
0.0011869
0.00109527
0.000982947
0.000840714
0.000657332
0.000417296
9.55089e-05
-0.000348388
-0.00097948
-0.00190511
-0.00331001
-0.00552897
-0.00922192
-0.015805
0.00209294
0.00208952
0.00203252
0.00194137
0.00184022
0.00174825
0.00167442
0.00161864
0.00157519
0.00153785
0.00149975
0.00145603
0.00140514
0.00134747
0.00128175
0.00120616
0.00111891
0.00101696
0.000893842
0.000740142
0.000544009
0.000289386
-4.89287e-05
-0.000511013
-0.00116138
-0.00210612
-0.00352654
-0.00575748
-0.0094602
-0.0160546
0.00213055
0.00211801
0.002049
0.00194479
0.00183073
0.00172699
0.00164364
0.00158113
0.0015339
0.0014947
0.00145598
0.00141155
0.001359
0.00129779
0.00122677
0.00114392
0.00104763
0.000935145
0.000800645
0.000634997
0.000426228
0.000157878
-0.000195063
-0.000672381
-0.00133805
-0.00229619
-0.00372782
-0.00596773
-0.00967709
-0.0162795
0.00216559
0.00214588
0.00206484
0.00194844
0.00182207
0.00170591
0.00161233
0.00154249
0.00149113
0.00144959
0.00140972
0.00136399
0.00130933
0.00124432
0.00116795
0.00107798
0.00097289
0.000849965
0.000704181
0.000526755
0.000305943
2.50271e-05
-0.00034073
-0.000830818
-0.00150796
-0.00247612
-0.0039167
-0.00616469
-0.00987994
-0.0164836
0.0021947
0.00216929
0.00208251
0.00195535
0.00181475
0.00168514
0.00158055
0.00150334
0.00144713
0.00140295
0.00136106
0.00131367
0.00125629
0.00118737
0.00110536
0.00100848
0.000894731
0.000761885
0.000605163
0.000416624
0.00018449
-0.00010765
-0.000484566
-0.000985015
-0.00167097
-0.00264652
-0.00409387
-0.00634851
-0.010072
-0.0166865
0.00222248
0.00219141
0.00209797
0.00196041
0.0018069
0.00166477
0.00154951
0.00146435
0.00140263
0.00135484
0.00131026
0.00126055
0.00120013
0.001127
0.00103932
0.000935553
0.000813539
0.000671287
0.000504335
0.000305396
6.29423e-05
-0.000239236
-0.000625771
-0.00113439
-0.00182714
-0.00280814
-0.00425984
-0.00651816
-0.0102466
-0.0168696
0.00225111
0.00221457
0.00210908
0.0019604
0.00179709
0.0016447
0.00151959
0.00142575
0.0013578
0.00130533
0.00125753
0.00120477
0.00114109
0.00106345
0.000970201
0.000859583
0.000729823
0.000578704
0.000402379
0.000193816
-5.79109e-05
-0.000369006
-0.000763288
-0.0012785
-0.00197649
-0.00296152
-0.00441553
-0.00667372
-0.0103969
-0.0170102
0.00227532
0.0022333
0.00212026
0.00196174
0.00178771
0.00162474
0.00148965
0.00138715
0.00131228
0.00125466
0.00120291
0.0011467
0.00107931
0.000997126
0.000898285
0.000781126
0.000644004
0.000484762
0.00029983
8.26026e-05
-0.000177462
-0.000495955
-0.000896511
-0.00141692
-0.00211894
-0.00310657
-0.00456156
-0.0068193
-0.0105425
-0.017161
0.00229546
0.00224917
0.00213108
0.00196408
0.00177882
0.00160443
0.00145904
0.00134791
0.001266
0.00120293
0.00114666
0.00108658
0.00101514
0.000928368
0.000824012
0.000700638
0.000556611
0.000389981
0.000197269
-2.76764e-05
-0.000294833
-0.000619355
-0.00102497
-0.00154941
-0.00225446
-0.00324398
-0.00469994
-0.00695813
-0.0106822
-0.0173018
0.00231483
0.00226507
0.00213914
0.00196322
0.00176834
0.0015836
0.00142817
0.00130824
0.00121921
0.00115032
0.00108924
0.00102481
0.00094911
0.000857619
0.000747955
0.000618636
0.000468252
0.0002949
9.53395e-05
-0.000136293
-0.000409296
-0.000738739
-0.00114831
-0.00167585
-0.00238312
-0.00337415
-0.00483105
-0.00708989
-0.010814
-0.0174324
0.00233095
0.00227756
0.00214584
0.00196181
0.00175737
0.00156244
0.00139712
0.00126845
0.00117211
0.00109718
0.00103091
0.000961842
0.00088163
0.000785417
0.000670594
0.000535701
0.000379459
0.000200104
-5.48147e-06
-0.000242617
-0.000520417
-0.000853802
-0.00126645
-0.00179622
-0.00250496
-0.0034968
-0.0049541
-0.00721322
-0.0109377
-0.0175558
0.00234398
0.00228733
0.00215095
0.00195971
0.0017459
0.00154088
0.00136587
0.00122864
0.00112491
0.00104374
0.000971982
0.000898032
0.000813137
0.000712227
0.000592437
0.000452364
0.000290783
0.000106112
-0.000104543
-0.000346219
-0.000627935
-0.000964447
-0.00137941
-0.00191064
-0.00262003
-0.00361171
-0.00506824
-0.00732643
-0.0110512
-0.0176739
0.002356
0.00229623
0.00215349
0.00195448
0.00173224
0.00151834
0.0013345
0.00118894
0.00107781
0.000990189
0.000912824
0.000833794
0.000744172
0.000638591
0.000514088
0.000369204
0.00020285
1.35289e-05
-0.000201314
-0.000446715
-0.000731563
-0.00107052
-0.00148711
-0.00201914
-0.00272844
-0.00371915
-0.00517382
-0.00742936
-0.0111509
-0.0177713
0.00236582
0.00230251
0.00215396
0.0019476
0.0017173
0.00149512
0.00130298
0.0011494
0.00103094
0.000936782
0.000853702
0.000769535
0.000675188
0.000565049
0.000436084
0.000286777
0.000116138
-7.70651e-05
-0.000295349
-0.00054376
-0.000831072
-0.00117185
-0.00158951
-0.0021218
-0.0028305
-0.00381974
-0.00527201
-0.00752448
-0.0112434
-0.0178644
0.00237292
0.00230665
0.00215293
0.00193982
0.00170183
0.00147152
0.00127121
0.00110979
0.000984173
0.000883623
0.00079487
0.00070559
0.000606576
0.000492054
0.000358902
0.000205568
3.12372e-05
-0.000165241
-0.000386366
-0.00063718
-0.000926385
-0.00126847
-0.00168673
-0.00221892
-0.00292683
-0.00391468
-0.00536515
-0.00761556
-0.0113322
-0.0179521
0.00237699
0.0023084
0.00215058
0.00193153
0.00168615
0.00144771
0.00123929
0.00107029
0.000937727
0.000830973
0.000736636
0.000642361
0.000538806
0.000420133
0.000283112
0.000126188
-5.13263e-05
-0.000250563
-0.000474036
-0.000726749
-0.00101738
-0.00136035
-0.00177892
-0.00231084
-0.00301797
-0.00400469
-0.005454
-0.00770387
-0.0114219
-0.0180459
0.0023787
0.0023081
0.00214657
0.00192204
0.00166971
0.0014236
0.00120744
0.00103115
0.000891905
0.000779153
0.000679414
0.000580317
0.000472428
0.000349854
0.000209284
4.92662e-05
-0.000130969
-0.000332531
-0.000557939
-0.000812156
-0.00110386
-0.00144742
-0.00186613
-0.00239774
-0.00310423
-0.00409015
-0.00553873
-0.0077882
-0.0115063
-0.0181307
0.00237944
0.00230654
0.00214075
0.00191065
0.00165198
0.00139906
0.00117585
0.000992678
0.000847035
0.000728517
0.000623609
0.000519911
0.000407943
0.000281774
0.000138099
-2.46183e-05
-0.000207183
-0.000410729
-0.000637732
-0.000893158
-0.00118566
-0.00152963
-0.00194836
-0.00247965
-0.00318556
-0.00417074
-0.00561853
-0.0078672
-0.0115844
-0.018208
0.0023782
0.00230313
0.00213354
0.00189838
0.00163379
0.00137449
0.00114474
0.000955136
0.000803464
0.000679474
0.000569695
0.000461679
0.000345953
0.000216539
7.00849e-05
-9.50234e-05
-0.000279624
-0.000484862
-0.000713194
-0.000969581
-0.00126267
-0.00160688
-0.0020255
-0.00255638
-0.00326161
-0.00424587
-0.00569252
-0.00793987
-0.0116558
-0.0182789
0.00237536
0.00229839
0.00212542
0.00188563
0.00161552
0.00135023
0.00111436
0.000918786
0.000761507
0.000632428
0.000518126
0.000406137
0.00028697
0.000154605
5.63694e-06
-0.000161607
-0.00034799
-0.000554672
-0.000784097
-0.00104123
-0.00133471
-0.00167897
-0.00209734
-0.00262765
-0.00333202
-0.00431516
-0.00576049
-0.00800648
-0.0117214
-0.0183445
0.0023713
0.0022926
0.00211653
0.00187251
0.00159733
0.00132653
0.00108503
0.000883983
0.000721548
0.000587802
0.000469364
0.000353764
0.000231468
9.64297e-05
-5.48007e-05
-0.000223937
-0.000411867
-0.000619763
-0.000850069
-0.00110775
-0.00140145
-0.00174562
-0.00216357
-0.00269319
-0.00339659
-0.00437858
-0.00582266
-0.00806752
-0.0117817
-0.0184051
0.0023664
0.00228611
0.0021072
0.00185933
0.00157955
0.00130377
0.00105716
0.000851146
0.000684042
0.000546077
0.000423919
0.000305073
0.000179974
4.25397e-05
-0.000110696
-0.000281487
-0.00047074
-0.000679647
-0.000910651
-0.00116872
-0.00146251
-0.00180649
-0.00222398
-0.00275289
-0.00345537
-0.00443629
-0.00587927
-0.00812315
-0.0118367
-0.0184605
0.002361
0.00227927
0.00209782
0.00184649
0.00156259
0.00128234
0.00103119
0.000820751
0.000649494
0.000507786
0.000382335
0.00026062
0.000133044
-6.50818e-06
-0.000161503
-0.000333729
-0.000524108
-0.000733854
-0.000965413
-0.00122376
-0.00151758
-0.00186134
-0.00227842
-0.00280672
-0.00350845
-0.00448848
-0.00593051
-0.00817347
-0.0118864
-0.0185104
0.00235563
0.00227263
0.00208887
0.00183448
0.00154694
0.00126275
0.00100761
0.000793327
0.000618513
0.000473592
0.000345312
0.000221118
9.13881e-05
-5.00164e-05
-0.000206549
-0.000380024
-0.000571372
-0.00078183
-0.00101385
-0.00127242
-0.00156625
-0.00190983
-0.00232657
-0.00285442
-0.00355561
-0.00453505
-0.00597647
-0.00821884
-0.0119313
-0.0185552
0.00235044
0.00226647
0.00208088
0.00182393
0.00153323
0.0012456
0.000987028
0.000769523
0.000591781
0.000444268
0.000313717
0.000187512
5.60068e-05
-8.69422e-05
-0.000244773
-0.000419295
-0.000611453
-0.000822489
-0.00105487
-0.00131361
-0.00160742
-0.00195086
-0.00236735
-0.00289488
-0.00359572
-0.00457485
-0.00601607
-0.00825844
-0.0119712
-0.0185959
0.00234618
0.00226114
0.00207403
0.00181506
0.00152178
0.00123135
0.000970108
0.000750205
0.000570376
0.000421029
0.000288844
0.000161151
2.82876e-05
-0.000115859
-0.000274702
-0.000450026
-0.000642787
-0.000854229
-0.00108684
-0.00134563
-0.00163937
-0.00198261
-0.00239884
-0.00292608
-0.00362666
-0.00460561
-0.00604678
-0.00828929
-0.0120024
-0.0186275
0.00234477
0.0022589
0.002069
0.00180645
0.00150975
0.00121667
0.000953584
0.00073224
0.000551044
0.000400223
0.000266459
0.000137122
2.64321e-06
-0.000143015
-0.000303196
-0.000479658
-0.000673349
-0.00088552
-0.00111866
-0.0013778
-0.0016717
-0.00201492
-0.00243093
-0.00295774
-0.00365768
-0.00463581
-0.00607611
-0.008318
-0.0120315
-0.0186599
0.0142787
0.0139817
0.0124944
0.0103241
0.00752983
0.00424121
0.000622956
-0.00296311
-0.00579878
-0.00724028
-0.00730487
-0.00654578
-0.00553668
-0.00460395
-0.00387551
-0.00337029
-0.00305367
-0.00287367
-0.00278153
-0.00273947
-0.00272133
-0.0027107
-0.00269844
-0.0026805
-0.00265607
-0.00262622
-0.00259282
-0.0025579
-0.00252319
-0.00249
-0.0024591
-0.00243084
-0.00240527
-0.00238227
-0.00236162
-0.00234313
-0.00232661
-0.00231194
-0.00229902
-0.00228776
-0.00227806
-0.00226983
-0.00226296
-0.00225735
-0.00225287
-0.00224944
-0.00224697
-0.00224537
-0.00224459
-0.00224458
-0.00224531
-0.00224676
-0.00224889
-0.0022517
-0.00225515
-0.00225923
-0.00226391
-0.00226918
-0.002275
-0.00228136
-0.00228823
-0.0022956
-0.00230344
-0.00231174
-0.00232047
-0.00232963
-0.00233918
-0.00234914
-0.00235946
-0.00237015
-0.00238118
-0.00239256
-0.00240426
-0.00241627
-0.0024286
-0.00244122
-0.00245413
-0.00246732
-0.00248078
-0.00249451
-0.0025085
-0.00252273
-0.00253722
-0.00255194
-0.00256691
-0.0025821
-0.00259751
-0.00261313
-0.00262897
-0.00264501
-0.00266126
-0.0026777
-0.00269434
-0.00271116
-0.00272817
-0.00274536
-0.00276273
-0.00278027
-0.00279799
-0.00281587
-0.00283393
-0.00285214
-0.00287052
-0.00288905
-0.00290774
-0.00292657
-0.00294555
-0.00296467
-0.00298394
-0.00300334
-0.00302289
-0.00304256
-0.00306237
-0.00308232
-0.00310239
-0.0031226
-0.00314292
-0.00316338
-0.00318395
-0.00320464
-0.00322545
-0.00324637
-0.0032674
-0.00328855
-0.0033098
-0.00333117
-0.00335264
-0.00337422
-0.0033959
-0.00341769
-0.00343958
-0.00346157
-0.00348366
-0.00350586
-0.00352815
-0.00355055
-0.00357304
-0.00359562
-0.0036183
-0.00364108
-0.00366394
-0.0036869
-0.00370994
-0.00373307
-0.00375629
-0.00377959
-0.00380298
-0.00382644
-0.00384998
-0.00387361
-0.0038973
-0.00392107
-0.00394492
-0.00396884
-0.00399283
-0.0040169
-0.00404104
-0.00406525
-0.00408954
-0.0041139
-0.00413833
-0.00416284
-0.00418742
-0.00421207
-0.00423679
-0.00426157
-0.00428643
-0.00431135
-0.00433633
-0.00436138
-0.0043865
-0.00441167
-0.0044369
-0.0044622
-0.00448754
-0.00451295
-0.00453841
-0.00456393
-0.00458951
-0.00461514
-0.00464083
-0.00466657
-0.00469238
-0.00471824
-0.00474417
-0.00477015
-0.00479619
-0.00482228
-0.00484843
-0.00487464
-0.00490089