/*--------------------------------*- C++ -*----------------------------------*\
| =========                 |                                                 |
| \\      /  F ield         | OpenFOAM: The Open Source CFD Toolbox           |
|  \\    /   O peration     | Version:  v2006                                 |
|   \\  /    A nd           | Website:  www.openfoam.com                      |
|    \\/     M anipulation  |                                                 |
\*---------------------------------------------------------------------------*/
FoamFile
{
    version     2.0;
    format      ascii;
    class       surfaceScalarField;
    location    "1.9";
    object      phi;
}
// * * * * * * * * * * * * * * * * * * * * * * * * * * * * * * * * * * * * * //

dimensions      [0 3 -1 0 0 0 0];
oriented        oriented;


internalField   nonuniform List<scalar> 
52390
(
1.17004e-06
-3.18449e-07
1.17008e-06
2.79639e-07
1.17314e-06
-2.583e-07
1.17325e-06
2.18588e-07
1.17677e-06
-2.06858e-07
1.17691e-06
1.68684e-07
1.18033e-06
-1.67464e-07
1.18022e-06
1.28466e-07
1.18342e-06
-1.35859e-07
1.18309e-06
9.81565e-08
1.18609e-06
-1.09881e-07
1.18555e-06
7.50507e-08
1.18839e-06
-8.89627e-08
1.18762e-06
5.66918e-08
1.19033e-06
-7.23188e-08
1.18931e-06
4.20639e-08
1.19192e-06
-5.8939e-08
1.19058e-06
3.07142e-08
1.19315e-06
-4.7962e-08
1.19139e-06
2.21463e-08
1.19399e-06
-3.87483e-08
1.19166e-06
1.58069e-08
1.19438e-06
-3.06437e-08
1.19129e-06
1.11413e-08
1.19421e-06
-2.25933e-08
1.19027e-06
7.40853e-09
1.19284e-06
-1.14731e-08
1.18659e-06
4.43543e-09
1.18213e-06
1.86648e-08
2.36697e-08
1.15364e-06
1.22709e-06
-3.21281e-07
1.22767e-06
2.79059e-07
1.23154e-06
-2.62163e-07
1.23221e-06
2.17918e-07
1.23607e-06
-2.1072e-07
1.23654e-06
1.68211e-07
1.23994e-06
-1.70864e-07
1.24021e-06
1.28194e-07
1.2431e-06
-1.38747e-07
1.24331e-06
9.79519e-08
1.24568e-06
-1.12259e-07
1.24592e-06
7.4811e-08
1.24777e-06
-9.08075e-08
1.24814e-06
5.6324e-08
1.24938e-06
-7.35621e-08
1.24998e-06
4.14607e-08
1.2505e-06
-5.9459e-08
1.25149e-06
2.97291e-08
1.25111e-06
-4.75797e-08
1.25266e-06
2.05874e-08
1.25112e-06
-3.7207e-08
1.25349e-06
1.34418e-08
1.25045e-06
-2.76091e-08
1.25384e-06
7.7508e-09
1.24897e-06
-1.77229e-08
1.2534e-06
2.98374e-09
1.24636e-06
-4.43374e-09
1.24967e-06
1.12538e-09
1.23779e-06
3.05465e-08
3.89614e-08
1.2225e-06
1.28548e-06
-3.23979e-07
1.28904e-06
2.75505e-07
1.2918e-06
-2.64926e-07
1.295e-06
2.14718e-07
1.29717e-06
-2.12889e-07
1.30002e-06
1.65354e-07
1.3013e-06
-1.72137e-07
1.30395e-06
1.25542e-07
1.30436e-06
-1.3916e-07
1.30704e-06
9.52791e-08
1.30663e-06
-1.11851e-07
1.30947e-06
7.19717e-08
1.30825e-06
-8.95891e-08
1.31135e-06
5.32242e-08
1.30931e-06
-7.15189e-08
1.31273e-06
3.8041e-08
1.30984e-06
-5.6578e-08
1.3136e-06
2.59686e-08
1.30991e-06
-4.38799e-08
1.31396e-06
1.65372e-08
1.30951e-06
-3.27649e-08
1.31368e-06
9.27083e-09
1.30869e-06
-2.26122e-08
1.3126e-06
3.84193e-09
1.30748e-06
-1.26022e-08
1.3103e-06
1.59991e-10
1.30595e-06
-8.16968e-11
1.30352e-06
3.54994e-09
1.30063e-06
3.34362e-08
6.14608e-08
1.27813e-06
1.34585e-06
-3.25726e-07
1.35197e-06
2.6938e-07
1.35316e-06
-2.66115e-07
1.35868e-06
2.092e-07
1.3589e-06
-2.13107e-07
1.36387e-06
1.60382e-07
1.36298e-06
-1.71246e-07
1.36755e-06
1.20969e-07
1.36575e-06
-1.3736e-07
1.37014e-06
9.08881e-08
1.36762e-06
-1.09322e-07
1.37191e-06
6.76741e-08
1.3688e-06
-8.64728e-08
1.37301e-06
4.90151e-08
1.36944e-06
-6.7952e-08
1.37352e-06
3.39641e-08
1.36964e-06
-5.27053e-08
1.37351e-06
2.21056e-08
1.36948e-06
-3.98576e-08
1.37301e-06
1.30137e-08
1.36899e-06
-2.87487e-08
1.372e-06
6.26541e-09
1.36817e-06
-1.87822e-08
1.37033e-06
1.67481e-09
1.36708e-06
-9.34598e-09
1.36751e-06
-2.75255e-10
1.36578e-06
1.64943e-09
1.36056e-06
8.77189e-09
1.36006e-06
3.39336e-08
8.46664e-08
1.33686e-06
1.40861e-06
-3.25979e-07
1.4161e-06
2.61887e-07
1.41567e-06
-2.65681e-07
1.42243e-06
2.02439e-07
1.42106e-06
-2.11739e-07
1.42706e-06
1.54381e-07
1.42474e-06
-1.68924e-07
1.43005e-06
1.15658e-07
1.4271e-06
-1.34413e-07
1.43192e-06
8.6075e-08
1.42861e-06
-1.06018e-07
1.43299e-06
6.32935e-08
1.42951e-06
-8.29934e-08
1.43347e-06
4.50584e-08
1.42995e-06
-6.44335e-08
1.43348e-06
3.04303e-08
1.43002e-06
-4.92447e-08
1.43314e-06
1.89941e-08
1.42979e-06
-3.65141e-08
1.43246e-06
1.03423e-08
1.42926e-06
-2.55478e-08
1.43142e-06
4.1064e-09
1.42843e-06
-1.5787e-08
1.4298e-06
2.9643e-10
1.42733e-06
-6.87268e-09
1.42708e-06
-2.66883e-11
1.42554e-06
3.19368e-09
1.4211e-06
1.32069e-08
1.41821e-06
3.68257e-08
1.10605e-07
1.39227e-06
1.47434e-06
-3.24643e-07
1.4819e-06
2.54332e-07
1.48016e-06
-2.63948e-07
1.48695e-06
1.95648e-07
1.48465e-06
-2.09438e-07
1.49058e-06
1.48452e-07
1.48768e-06
-1.66025e-07
1.49276e-06
1.10578e-07
1.48959e-06
-1.31242e-07
1.49403e-06
8.16329e-08
1.49081e-06
-1.02795e-07
1.49472e-06
5.93814e-08
1.49154e-06
-7.98141e-08
1.495e-06
4.16064e-08
1.49189e-06
-6.13332e-08
1.49496e-06
2.73672e-08
1.49194e-06
-4.62249e-08
1.49467e-06
1.6264e-08
1.49172e-06
-3.35626e-08
1.49412e-06
7.94207e-09
1.49123e-06
-2.26588e-08
1.4932e-06
2.12973e-09
1.49044e-06
-1.30259e-08
1.49172e-06
-9.82037e-10
1.4892e-06
-4.35078e-09
1.48942e-06
-2.50815e-10
1.48651e-06
6.11013e-09
1.4843e-06
1.54106e-08
1.4832e-06
3.79268e-08
6.42206e-08
1.52959e-06
1.54355e-06
-3.21974e-07
1.55032e-06
2.47558e-07
1.54771e-06
-2.61336e-07
1.55379e-06
1.8957e-07
1.55105e-06
-2.06702e-07
1.55636e-06
1.43142e-07
1.55335e-06
-1.63011e-07
1.55787e-06
1.06057e-07
1.55479e-06
-1.28163e-07
1.55876e-06
7.76599e-08
1.55574e-06
-9.97727e-08
1.5593e-06
5.58206e-08
1.55634e-06
-7.68525e-08
1.55957e-06
3.83751e-08
1.55665e-06
-5.84073e-08
1.55961e-06
2.44018e-08
1.5567e-06
-4.33146e-08
1.55942e-06
1.3542e-08
1.55653e-06
-3.06724e-08
1.55896e-06
5.51708e-09
1.55613e-06
-1.98296e-08
1.55808e-06
1.73805e-10
1.55544e-06
-1.03845e-08
1.55655e-06
-2.08617e-09
1.55444e-06
-2.24445e-09
1.55373e-06
4.60867e-10
1.55259e-06
7.24615e-09
1.54769e-06
2.03175e-08
1.54342e-06
4.21973e-08
9.51345e-08
1.5125e-06
1.61649e-06
-3.18339e-07
1.6223e-06
2.4175e-07
1.61909e-06
-2.58127e-07
1.62434e-06
1.84325e-07
1.62134e-06
-2.03705e-07
1.62604e-06
1.38439e-07
1.62295e-06
-1.5992e-07
1.62705e-06
1.01957e-07
1.62396e-06
-1.2507e-07
1.62769e-06
7.39287e-08
1.62465e-06
-9.67322e-08
1.62813e-06
5.23447e-08
1.62511e-06
-7.38399e-08
1.62838e-06
3.51127e-08
1.62537e-06
-5.53973e-08
1.62843e-06
2.1342e-08
1.62542e-06
-4.03118e-08
1.62824e-06
1.07235e-08
1.62529e-06
-2.7723e-08
1.62775e-06
3.05696e-09
1.62496e-06
-1.70339e-08
1.62682e-06
-1.68494e-09
1.62433e-06
-7.90087e-09
1.62516e-06
-2.91142e-09
1.62337e-06
-4.60897e-10
1.62202e-06
1.81798e-09
1.62157e-06
7.68925e-09
1.61646e-06
2.54262e-08
1.61169e-06
4.69719e-08
1.31721e-07
1.5751e-06
1.69326e-06
-3.14029e-07
1.69839e-06
2.36628e-07
1.69468e-06
-2.54419e-07
1.69936e-06
1.79641e-07
1.69606e-06
-2.00403e-07
1.70045e-06
1.34052e-07
1.69713e-06
-1.56608e-07
1.70109e-06
9.79977e-08
1.69778e-06
-1.21757e-07
1.70151e-06
7.02015e-08
1.69823e-06
-9.34595e-08
1.7018e-06
4.87759e-08
1.69856e-06
-7.05924e-08
1.70196e-06
3.17097e-08
1.69873e-06
-5.21725e-08
1.70193e-06
1.81464e-08
1.69876e-06
-3.71445e-08
1.70166e-06
7.82526e-09
1.69863e-06
-2.46935e-08
1.70107e-06
6.15636e-10
1.6983e-06
-1.42576e-08
1.70005e-06
-3.43493e-09
1.69758e-06
-5.43783e-09
1.69855e-06
-3.88073e-09
1.69572e-06
2.37012e-09
1.69644e-06
1.09561e-09
1.69128e-06
1.28559e-08
1.69577e-06
2.09317e-08
1.69683e-06
4.59121e-08
8.22744e-08
1.74628e-06
1.7739e-06
-3.09204e-07
1.77877e-06
2.31755e-07
1.77455e-06
-2.50197e-07
1.77905e-06
1.75144e-07
1.77534e-06
-1.96693e-07
1.77972e-06
1.2967e-07
1.77605e-06
-1.52937e-07
1.7801e-06
9.39428e-08
1.77643e-06
-1.18086e-07
1.78032e-06
6.63175e-08
1.77669e-06
-8.98393e-08
1.78045e-06
4.50221e-08
1.77689e-06
-6.70327e-08
1.78047e-06
2.81328e-08
1.77699e-06
-4.86986e-08
1.78031e-06
1.48323e-08
1.77698e-06
-3.38225e-08
1.7799e-06
4.91244e-09
1.77685e-06
-2.16472e-08
1.77914e-06
-1.67805e-09
1.77652e-06
-1.16355e-08
1.77796e-06
-4.8697e-09
1.77578e-06
-3.26529e-09
1.77628e-06
-4.3811e-09
1.7737e-06
4.95697e-09
1.77427e-06
5.262e-10
1.76816e-06
1.89663e-08
1.77455e-06
1.45346e-08
1.77619e-06
4.42789e-08
2.64944e-08
1.83197e-06
1.85847e-06
-3.03928e-07
1.86348e-06
2.26751e-07
1.8587e-06
-2.45417e-07
1.86331e-06
1.70528e-07
1.85911e-06
-1.92493e-07
1.86372e-06
1.25059e-07
1.85961e-06
-1.48826e-07
1.86393e-06
8.96294e-08
1.85983e-06
-1.13994e-07
1.86397e-06
6.2175e-08
1.85997e-06
-8.58317e-08
1.86396e-06
4.10327e-08
1.86007e-06
-6.31495e-08
1.86383e-06
2.43766e-08
1.86013e-06
-4.49979e-08
1.86352e-06
1.14368e-08
1.86011e-06
-3.04038e-08
1.86296e-06
2.06274e-09
1.85998e-06
-1.86747e-08
1.86202e-06
-3.71666e-09
1.85967e-06
-9.28637e-09
1.86064e-06
-5.83593e-09
1.85896e-06
-1.59053e-09
1.85857e-06
-3.98451e-09
1.85738e-06
6.14212e-09
1.85528e-06
2.62824e-09
1.85359e-06
2.0656e-08
1.84857e-06
1.95525e-08
1.83879e-06
5.40652e-08
6.23866e-08
1.80289e-06
1.94713e-06
-2.98215e-07
1.95252e-06
2.21353e-07
1.94713e-06
-2.40026e-07
1.95208e-06
1.65587e-07
1.94733e-06
-1.87749e-07
1.95232e-06
1.20066e-07
1.94773e-06
-1.44232e-07
1.95241e-06
8.49508e-08
1.94787e-06
-1.09453e-07
1.95233e-06
5.77085e-08
1.94794e-06
-8.14333e-08
1.95219e-06
3.67801e-08
1.948e-06
-5.89657e-08
1.95193e-06
2.04531e-08
1.94806e-06
-4.11252e-08
1.95148e-06
8.01371e-09
1.94805e-06
-2.698e-08
1.95075e-06
-6.29048e-10
1.94797e-06
-1.58964e-08
1.94964e-06
-5.3931e-09
1.94768e-06
-7.31882e-09
1.94809e-06
-6.24739e-09
1.94698e-06
-4.79513e-10
1.94577e-06
-2.77589e-09
1.94541e-06
6.49696e-09
1.9418e-06
6.24666e-09
1.94276e-06
1.96937e-08
1.9316e-06
3.07125e-08
1.92697e-06
5.86933e-08
9.36214e-08
1.89573e-06
2.04004e-06
-2.92063e-07
2.04599e-06
2.15397e-07
2.03995e-06
-2.33979e-07
2.04534e-06
1.60188e-07
2.04001e-06
-1.82416e-07
2.04549e-06
1.14593e-07
2.04038e-06
-1.39128e-07
2.04549e-06
7.98403e-08
2.0405e-06
-1.04459e-07
2.04532e-06
5.28828e-08
2.04055e-06
-7.66623e-08
2.04507e-06
3.22644e-08
2.04063e-06
-5.453e-08
2.04468e-06
1.64031e-08
2.04072e-06
-3.71659e-08
2.04409e-06
4.6475e-09
2.04079e-06
-2.36784e-08
2.04319e-06
-3.03573e-09
2.04076e-06
-1.34615e-08
2.04195e-06
-6.58721e-09
2.04048e-06
-5.84582e-09
2.04028e-06
-6.05142e-09
2.03963e-06
1.70473e-10
2.0381e-06
-1.23698e-09
2.03735e-06
7.24415e-09
2.03417e-06
9.42182e-09
2.03308e-06
2.07894e-08
2.02603e-06
3.77598e-08
2.01453e-06
7.0191e-08
1.2688e-07
1.98127e-06
2.1374e-06
-2.85462e-07
2.14402e-06
2.08772e-07
2.13727e-06
-2.27225e-07
2.14321e-06
1.54244e-07
2.13726e-06
-1.76459e-07
2.14328e-06
1.08575e-07
2.13764e-06
-1.33494e-07
2.14322e-06
7.42604e-08
2.13778e-06
-9.90144e-08
2.14297e-06
4.76909e-08
2.13786e-06
-7.15525e-08
2.14261e-06
2.75135e-08
2.13799e-06
-4.99099e-08
2.1421e-06
1.22935e-08
2.13816e-06
-3.32229e-08
2.14136e-06
1.43956e-09
2.13831e-06
-2.062e-08
2.14033e-06
-5.05591e-09
2.13834e-06
-1.14724e-08
2.13899e-06
-7.24384e-09
2.138e-06
-4.84777e-09
2.13747e-06
-5.52865e-09
2.13659e-06
1.05578e-09
2.13575e-06
-3.9541e-10
2.13351e-06
9.47598e-09
2.13165e-06
1.1282e-08
2.12602e-06
2.64206e-08
2.132e-06
3.17861e-08
2.15564e-06
4.65524e-08
5.19899e-08
2.23053e-06
2.23942e-06
-2.78395e-07
2.24679e-06
2.01401e-07
2.23928e-06
-2.19715e-07
2.24584e-06
1.47691e-07
2.23922e-06
-1.69843e-07
2.24583e-06
1.01971e-07
2.23965e-06
-1.27321e-07
2.24571e-06
6.81989e-08
2.23984e-06
-9.314e-08
2.24537e-06
4.21558e-08
2.23998e-06
-6.61605e-08
2.2449e-06
2.25916e-08
2.2402e-06
-4.52046e-08
2.24426e-06
8.23501e-09
2.24048e-06
-2.94417e-08
2.24337e-06
-1.45283e-09
2.24073e-06
-1.79831e-08
2.2422e-06
-6.52398e-09
2.24082e-06
-1.00951e-08
2.24079e-06
-7.20995e-09
2.24046e-06
-4.51709e-09
2.23911e-06
-4.18254e-09
2.23923e-06
9.40051e-10
2.23687e-06
1.9597e-09
2.23627e-06
1.00825e-08
2.23285e-06
1.46937e-08
2.23044e-06
2.88305e-08
2.22341e-06
3.88245e-08
2.20737e-06
6.25907e-08
8.28454e-08
2.17651e-06
2.34633e-06
-2.70847e-07
2.3545e-06
1.93225e-07
2.34619e-06
-2.11402e-07
2.3534e-06
1.40482e-07
2.3461e-06
-1.62539e-07
2.35331e-06
9.47582e-08
2.34659e-06
-1.20607e-07
2.35313e-06
6.16642e-08
2.34686e-06
-8.68691e-08
2.35269e-06
3.63241e-08
2.34709e-06
-6.05613e-08
2.35209e-06
1.75886e-08
2.34742e-06
-4.05324e-08
2.3513e-06
4.35931e-09
2.34783e-06
-2.59781e-08
2.35025e-06
-3.87073e-09
2.34819e-06
-1.59253e-08
2.34899e-06
-7.31832e-09
2.34831e-06
-9.41234e-09
2.34755e-06
-6.45255e-09
2.34791e-06
-4.87463e-09
2.34559e-06
-1.87161e-09
2.347e-06
-4.65111e-10
2.34274e-06
6.2167e-09
2.34444e-06
8.38141e-09
2.33856e-06
2.05788e-08
2.33944e-06
2.79532e-08
2.32462e-06
5.36402e-08
2.31507e-06
7.21372e-08
1.07089e-07
2.29083e-06
2.45835e-06
-2.62802e-07
2.46738e-06
1.842e-07
2.45822e-06
-2.02249e-07
2.46611e-06
1.32593e-07
2.45811e-06
-1.54537e-07
2.46593e-06
8.69413e-08
2.45869e-06
-1.13376e-07
2.46566e-06
5.46955e-08
2.45906e-06
-8.02658e-08
2.4651e-06
3.02795e-08
2.45941e-06
-5.4864e-08
2.46437e-06
1.26285e-08
2.45987e-06
-3.60323e-08
2.46342e-06
8.02275e-10
2.4604e-06
-2.29553e-08
2.46226e-06
-5.7316e-09
2.46081e-06
-1.44739e-08
2.46101e-06
-7.51796e-09
2.46077e-06
-9.16881e-09
2.45979e-06
-5.47156e-09
2.45996e-06
-5.04801e-09
2.45841e-06
-3.21566e-10
2.45818e-06
-2.39226e-10
2.456e-06
8.40093e-09
2.45452e-06
9.85865e-09
2.45137e-06
2.37352e-08
2.44882e-06
3.04958e-08
2.44069e-06
6.1777e-08
2.42252e-06
9.03082e-08
1.4129e-07
2.38831e-06
2.57575e-06
-2.54255e-07
2.58565e-06
1.74301e-07
2.57563e-06
-1.92234e-07
2.58421e-06
1.24017e-07
2.57551e-06
-1.45843e-07
2.58391e-06
7.85464e-08
2.57621e-06
-1.05674e-07
2.58354e-06
4.73596e-08
2.5767e-06
-7.34233e-08
2.58284e-06
2.41381e-08
2.57719e-06
-4.92084e-08
2.58195e-06
7.86231e-09
2.57778e-06
-3.18595e-08
2.58087e-06
-2.29325e-09
2.57841e-06
-2.04875e-08
2.57966e-06
-6.98309e-09
2.57878e-06
-1.36e-08
2.57852e-06
-7.2573e-09
2.57848e-06
-9.12274e-09
2.57766e-06
-4.65505e-09
2.57696e-06
-4.3454e-09
2.57715e-06
-5.13763e-10
2.5742e-06
2.71199e-09
2.5753e-06
7.30188e-09
2.56985e-06
1.53109e-08
2.5691e-06
2.44774e-08
2.56121e-06
3.83845e-08
2.57822e-06
4.47711e-08
2.61401e-06
5.45196e-08
5.44583e-08
2.70084e-06
2.69878e-06
-2.45203e-07
2.70957e-06
1.63508e-07
2.69868e-06
-1.81349e-07
2.70794e-06
1.14764e-07
2.69858e-06
-1.36483e-07
2.7075e-06
6.96233e-08
2.6994e-06
-9.75756e-08
2.70701e-06
3.97555e-08
2.70006e-06
-6.64729e-08
2.70613e-06
1.80605e-08
2.70071e-06
-4.37797e-08
2.70508e-06
3.49128e-09
2.70145e-06
-2.82333e-08
2.70387e-06
-4.70838e-09
2.70214e-06
-1.87611e-08
2.70264e-06
-7.48767e-09
2.70247e-06
-1.34244e-08
2.70154e-06
-6.33255e-09
2.7021e-06
-9.68311e-09
2.70051e-06
-3.06074e-09
2.70103e-06
-4.86362e-09
2.69912e-06
1.39381e-09
2.69884e-06
2.99417e-09
2.69655e-06
9.59046e-09
2.69463e-06
1.72298e-08
2.69173e-06
2.73814e-08
2.68821e-06
4.18978e-08
2.67915e-06
5.38332e-08
2.658e-06
7.56719e-08
8.93025e-08
2.62315e-06
2.8277e-06
-2.35639e-07
2.8394e-06
1.5181e-07
2.82765e-06
-1.69596e-07
2.83756e-06
1.04851e-07
2.82757e-06
-1.26492e-07
2.83696e-06
6.02313e-08
2.82855e-06
-8.91592e-08
2.83632e-06
3.19838e-08
2.82938e-06
-5.95382e-08
2.83527e-06
1.21707e-08
2.83016e-06
-3.86647e-08
2.83409e-06
-4.38763e-10
2.83103e-06
-2.51765e-08
2.83278e-06
-6.46009e-09
2.83174e-06
-1.77168e-08
2.83161e-06
-7.35675e-09
2.83195e-06
-1.37702e-08
2.83057e-06
-4.94794e-09
2.83163e-06
-1.07416e-08
2.82914e-06
-5.75965e-10
2.83106e-06
-6.7844e-09
2.82671e-06
5.74621e-09
2.82993e-06
-2.23673e-10
2.82341e-06
1.61071e-08
2.82696e-06
1.36871e-08
2.81927e-06
3.5063e-08
2.82036e-06
4.0813e-08
2.79976e-06
7.44304e-08
2.79032e-06
8.51151e-08
1.14052e-07
2.76557e-06
2.96283e-06
-2.25573e-07
2.97541e-06
1.39227e-07
2.96283e-06
-1.57014e-07
2.97334e-06
9.43422e-08
2.9628e-06
-1.15949e-07
2.97254e-06
5.04888e-08
2.96395e-06
-8.05717e-08
2.97171e-06
2.42276e-08
2.96502e-06
-5.28457e-08
2.97042e-06
6.76431e-09
2.96608e-06
-3.43187e-08
2.96898e-06
-3.33866e-09
2.96703e-06
-2.32346e-08
2.96775e-06
-7.1781e-09
2.96755e-06
-1.75185e-08
2.96685e-06
-6.65479e-09
2.96741e-06
-1.43285e-08
2.96617e-06
-3.70681e-09
2.96677e-06
-1.13429e-08
2.96516e-06
1.03417e-09
2.96536e-06
-6.98143e-09
2.96343e-06
7.67718e-09
2.96323e-06
-3.02293e-11
2.96002e-06
1.93209e-08
2.95837e-06
1.53396e-08
2.95584e-06
3.75937e-08
2.95312e-06
4.35253e-08
2.94211e-06
8.54482e-08
2.91664e-06
1.10584e-07
1.51976e-07
2.87871e-06
3.10446e-06
-2.15029e-07
3.11789e-06
1.25797e-07
3.10455e-06
-1.43668e-07
3.11557e-06
8.3318e-08
3.10457e-06
-1.04952e-07
3.11454e-06
4.0517e-08
3.10592e-06
-7.19433e-08
3.11353e-06
1.6617e-08
3.10718e-06
-4.64986e-08
3.1121e-06
1.84027e-09
3.10826e-06
-3.04754e-08
3.11075e-06
-5.82394e-09
3.10901e-06
-2.1494e-08
3.10995e-06
-8.1197e-09
3.10883e-06
-1.64039e-08
3.10989e-06
-7.71111e-09
3.10768e-06
-1.21188e-08
3.11026e-06
-6.29192e-09
3.1056e-06
-6.67702e-09
3.11067e-06
-4.03764e-09
3.10271e-06
9.74339e-10
3.11042e-06
-2.57176e-11
3.09977e-06
1.06197e-08
3.10779e-06
1.12996e-08
3.09552e-06
2.76043e-08
3.09894e-06
3.41792e-08
3.08838e-06
5.40872e-08
3.12121e-06
5.26163e-08
3.1673e-06
6.44946e-08
5.986e-08
3.25941e-06
3.25292e-06
-2.04041e-07
3.26714e-06
1.11581e-07
3.25314e-06
-1.29668e-07
3.26456e-06
7.19008e-08
3.25325e-06
-9.36429e-08
3.26327e-06
3.0496e-08
3.2548e-06
-6.34799e-08
3.26203e-06
9.3949e-09
3.25633e-06
-4.08049e-08
3.26035e-06
-2.1771e-09
3.25763e-06
-2.77571e-08
3.25886e-06
-7.05e-09
3.25847e-06
-2.11105e-08
3.25791e-06
-7.55545e-09
3.2586e-06
-1.70944e-08
3.25725e-06
-6.36096e-09
3.25845e-06
-1.33137e-08
3.25617e-06
-4.01449e-09
3.25826e-06
-8.77001e-09
3.25434e-06
-1.19491e-10
3.25765e-06
-2.33375e-09
3.25157e-06
6.05011e-09
3.25532e-06
6.87435e-09
3.24814e-06
1.84757e-08
3.25205e-06
2.3699e-08
3.24583e-06
4.03939e-08
3.24732e-06
5.26045e-08
3.2266e-06
7.33316e-08
3.20304e-06
8.80547e-08
1.01698e-07
3.1612e-06
3.40853e-06
-1.92642e-07
3.42346e-06
9.6657e-08
3.40894e-06
-1.15147e-07
3.4206e-06
6.02372e-08
3.40914e-06
-8.21829e-08
3.419e-06
2.06344e-08
3.41094e-06
-5.5415e-08
3.4175e-06
2.82983e-09
3.4128e-06
-3.60994e-08
3.41552e-06
-4.89905e-09
3.41432e-06
-2.65566e-08
3.41394e-06
-6.67289e-09
3.4151e-06
-2.22735e-08
3.41302e-06
-5.47522e-09
3.41525e-06
-1.93268e-08
3.4122e-06
-3.30839e-09
3.41535e-06
-1.64592e-08
3.41091e-06
4.18656e-10
3.41493e-06
-1.279e-08
3.40922e-06
5.59278e-09
3.41426e-06
-7.36971e-09
3.40622e-06
1.40923e-08
3.41216e-06
9.33194e-10
3.40296e-06
2.76762e-08
3.40797e-06
1.86818e-08
3.40171e-06
4.66587e-08
3.4065e-06
4.7811e-08
3.38212e-06
9.77125e-08
3.35511e-06
1.1507e-07
1.46188e-07
3.31062e-06
3.57166e-06
-1.80895e-07
3.58717e-06
8.11548e-08
3.57231e-06
-1.00295e-07
3.58404e-06
4.85082e-08
3.57259e-06
-7.07275e-08
3.58215e-06
1.10672e-08
3.57448e-06
-4.7742e-08
3.58066e-06
-3.34768e-09
3.57619e-06
-3.16288e-08
3.57912e-06
-7.82563e-09
3.57697e-06
-2.4408e-08
3.57858e-06
-8.2833e-09
3.57653e-06
-2.02293e-08
3.57901e-06
-7.95042e-09
3.5751e-06
-1.54164e-08
3.57994e-06
-8.14699e-09
3.57281e-06
-9.33684e-09
3.58141e-06
-8.18004e-09
3.56977e-06
-1.15157e-09
3.58197e-06
-6.60292e-09
3.56657e-06
8.02868e-09
3.58212e-06
-1.45995e-09
3.56347e-06
1.95884e-08
3.57979e-06
1.13532e-08
3.55951e-06
3.89656e-08
3.56972e-06
3.64482e-08
3.55559e-06
6.1937e-08
3.60406e-06
4.92401e-08
3.65615e-06
6.2987e-08
5.82978e-08
3.74404e-06
3.74269e-06
-1.68883e-07
3.75861e-06
6.52421e-08
3.74369e-06
-8.53789e-08
3.75523e-06
3.69679e-08
3.74403e-06
-5.95266e-08
3.75296e-06
2.13237e-09
3.7461e-06
-4.08751e-08
3.75131e-06
-8.55564e-09
3.74798e-06
-2.83017e-08
3.74959e-06
-9.44078e-09
3.74916e-06
-2.39725e-08
3.74835e-06
-7.47652e-09
3.74992e-06
-2.18028e-08
3.74691e-06
-4.93226e-09
3.75082e-06
-1.93303e-08
3.74521e-06
-2.53328e-09
3.75137e-06
-1.55041e-08
3.74336e-06
-1.71224e-10
3.75161e-06
-9.39941e-09
3.74174e-06
3.27402e-09
3.74978e-06
-1.30337e-11
3.73914e-06
9.17671e-09
3.74665e-06
1.20777e-08
3.73701e-06
2.09935e-08
3.7448e-06
3.11728e-08
3.73798e-06
4.32763e-08
3.73769e-06
6.22231e-08
3.71441e-06
7.25235e-08
3.68399e-06
9.34064e-08
1.07518e-07
3.63477e-06
3.92198e-06
-1.56676e-07
3.9381e-06
4.91196e-08
3.92347e-06
-7.07457e-08
3.93449e-06
2.59467e-08
3.92388e-06
-4.89182e-08
3.93176e-06
-5.73885e-09
3.92598e-06
-3.51023e-08
3.93016e-06
-1.27299e-08
3.92772e-06
-2.58656e-08
3.92868e-06
-1.04047e-08
3.92878e-06
-2.40708e-08
3.92734e-06
-6.03259e-09
3.93011e-06
-2.45711e-08
3.92519e-06
-1.49786e-11
3.93148e-06
-2.56166e-08
3.92281e-06
6.13453e-09
3.93309e-06
-2.57825e-08
3.91978e-06
1.31405e-08
3.93437e-06
-2.39928e-08
3.91632e-06
2.13266e-08
3.93485e-06
-1.85489e-08
3.91302e-06
3.10098e-08
3.93356e-06
-8.46703e-09
3.91133e-06
4.32251e-08
3.93375e-06
8.75231e-09
3.91538e-06
6.16476e-08
3.93626e-06
4.1344e-08
3.89051e-06
1.18275e-07
3.85794e-06
1.25977e-07
1.55293e-07
3.81016e-06
4.10995e-06
-1.44377e-07
4.12606e-06
3.30116e-08
4.11203e-06
-5.67181e-08
4.12236e-06
1.56201e-08
4.1122e-06
-3.87556e-08
4.11956e-06
-1.3108e-08
4.11371e-06
-2.92468e-08
4.11899e-06
-1.80115e-08
4.11388e-06
-2.07527e-08
4.11961e-06
-1.61365e-08
4.11255e-06
-1.70142e-08
4.12091e-06
-1.43878e-08
4.11042e-06
-1.40816e-08
4.12255e-06
-1.21465e-08
4.10825e-06
-1.13157e-08
4.12359e-06
-9.20509e-09
4.10624e-06
-8.43855e-09
4.12405e-06
-4.66733e-09
4.10444e-06
-4.38081e-09
4.1235e-06
2.27181e-09
4.10288e-06
2.06897e-09
4.12102e-06
1.28707e-08
4.1007e-06
1.18539e-08
4.11665e-06
2.72707e-08
4.09799e-06
2.74151e-08
4.11612e-06
4.3512e-08
4.10757e-06
4.98946e-08
4.15826e-06
6.7583e-08
4.21034e-06
7.39065e-08
8.52084e-08
4.28042e-06
4.30707e-06
-1.32147e-07
4.32279e-06
1.72939e-08
4.31027e-06
-4.41975e-08
4.31896e-06
6.92667e-09
4.31019e-06
-2.99807e-08
4.3156e-06
-1.85159e-08
4.31145e-06
-2.51034e-08
4.31513e-06
-2.16925e-08
4.31149e-06
-1.71062e-08
4.31596e-06
-2.06081e-08
4.31024e-06
-1.12936e-08
4.31718e-06
-2.13254e-08
4.30831e-06
-5.21115e-09
4.31881e-06
-2.26522e-08
4.30582e-06
1.67831e-09
4.32011e-06
-2.34978e-08
4.30358e-06
8.09055e-09
4.32087e-06
-2.19562e-08
4.30138e-06
1.5112e-08
4.3206e-06
-1.69513e-08
4.29918e-06
2.34917e-08
4.3193e-06
-7.25598e-09
4.29673e-06
3.44282e-08
4.31493e-06
9.07145e-09
4.29299e-06
4.93573e-08
4.31216e-06
2.43389e-08
4.31044e-06
5.16103e-08
4.36138e-06
1.66508e-08
4.40969e-06
2.55969e-08
4.2746e-09
4.49062e-06
4.51381e-06
-1.20185e-07
4.52861e-06
2.4936e-09
4.51942e-06
-3.5e-08
4.52494e-06
1.40561e-09
4.51795e-06
-2.29922e-08
4.52089e-06
-2.14594e-08
4.51888e-06
-2.30946e-08
4.51962e-06
-2.24315e-08
4.51986e-06
-1.73421e-08
4.51924e-06
-1.99896e-08
4.52105e-06
-1.31058e-08
4.51809e-06
-1.83685e-08
4.52192e-06
-9.03859e-09
4.51655e-06
-1.72843e-08
4.52261e-06
-4.37699e-09
4.51514e-06
-1.60268e-08
4.52267e-06
5.53735e-10
4.51384e-06
-1.31218e-08
4.52182e-06
7.13534e-09
4.51193e-06
-7.06372e-09
4.519e-06
1.64186e-08
4.50816e-06
3.58788e-09
4.51291e-06
2.96737e-08
4.50431e-06
1.76794e-08
4.51204e-06
4.162e-08
4.50486e-06
3.15256e-08
4.50851e-06
4.79528e-08
4.47998e-06
4.51822e-08
4.44233e-06
6.32488e-08
6.19245e-08
4.38468e-06
4.73039e-06
-1.08465e-07
4.74459e-06
-1.16986e-08
4.73642e-06
-2.68318e-08
4.74157e-06
-3.74986e-09
4.73507e-06
-1.64917e-08
4.73669e-06
-2.30726e-08
4.73564e-06
-2.20426e-08
4.7349e-06
-2.16956e-08
4.73772e-06
-2.01654e-08
4.73378e-06
-1.60455e-08
4.73959e-06
-1.89178e-08
4.73184e-06
-1.06172e-08
4.7411e-06
-1.82957e-08
4.72947e-06
-5.65862e-09
4.74262e-06
-1.75279e-08
4.72732e-06
-7.24696e-10
4.74321e-06
-1.53334e-08
4.72565e-06
4.43088e-09
4.74281e-06
-1.00168e-08
4.72421e-06
1.15278e-08
4.74126e-06
-6.26829e-10
4.72274e-06
2.21073e-08
4.7399e-06
1.2517e-08
4.72279e-06
3.47903e-08
4.73663e-06
2.77753e-08
4.71439e-06
5.3766e-08
4.7115e-06
5.08474e-08
4.68667e-06
7.0008e-08
4.68021e-06
6.97063e-08
9.43485e-08
4.64779e-06
4.95775e-06
-9.74179e-08
4.96944e-06
-2.33876e-08
4.96701e-06
-2.44003e-08
4.96598e-06
-2.7175e-09
4.96604e-06
-1.65587e-08
4.96123e-06
-1.8264e-08
4.96416e-06
-2.49652e-08
4.96051e-06
-1.80523e-08
4.96497e-06
-2.46219e-08
4.96058e-06
-1.16557e-08
4.96559e-06
-2.39262e-08
4.96015e-06
-5.18158e-09
4.96568e-06
-2.38269e-08
4.95943e-06
5.96026e-10
4.96507e-06
-2.31656e-08
4.9592e-06
5.14158e-09
4.96428e-06
-2.04075e-08
4.95787e-06
1.08402e-08
4.9615e-06
-1.36517e-08
4.95412e-06
1.89108e-08
4.95607e-06
-2.57454e-09
4.9494e-06
2.87775e-08
4.95077e-06
1.11425e-08
4.94708e-06
3.84812e-08
4.94748e-06
2.73718e-08
4.94929e-06
5.19619e-08
4.94715e-06
5.29846e-08
4.91866e-06
9.8497e-08
4.87516e-06
1.13204e-07
1.309e-07
4.83861e-06
5.19568e-06
-8.67789e-08
5.20697e-06
-3.46815e-08
5.20257e-06
-1.99959e-08
5.2067e-06
-6.85437e-09
5.1982e-06
-8.05784e-09
5.20488e-06
-2.49458e-08
5.19553e-06
-1.56146e-08
5.20632e-06
-2.88425e-08
5.19381e-06
-1.21106e-08
5.20846e-06
-2.63076e-08
5.19172e-06
-7.18245e-09
5.21015e-06
-2.36091e-08
5.18946e-06
-3.1379e-09
5.21151e-06
-2.14523e-08
5.18776e-06
5.86491e-10
5.21154e-06
-1.86432e-08
5.18707e-06
4.05928e-09
5.21072e-06
-1.28008e-08
5.18677e-06
1.02983e-08
5.20942e-06
-3.74721e-09
5.18679e-06
2.0058e-08
5.20568e-06
9.88616e-09
5.18234e-06
3.4482e-08
5.19294e-06
2.78861e-08
5.17274e-06
4.7566e-08
5.18441e-06
4.02943e-08
5.19027e-06
4.71259e-08
5.26244e-06
2.63233e-08
5.34941e-06
2.62351e-08
2.69802e-08
5.45333e-06
5.44556e-06
-7.7145e-08
5.45216e-06
-4.12841e-08
5.45588e-06
-2.37165e-08
5.45016e-06
-1.14042e-09
5.45554e-06
-1.34297e-08
5.44616e-06
-1.55725e-08
5.45257e-06
-2.20239e-08
5.44584e-06
-2.21149e-08
5.45206e-06
-1.83247e-08
5.44697e-06
-2.12174e-08
5.45181e-06
-1.20279e-08
5.44778e-06
-1.95792e-08
5.45089e-06
-6.24004e-09
5.44663e-06
-1.72e-08
5.44864e-06
-1.41544e-09
5.44423e-06
-1.42397e-08
5.44468e-06
3.61339e-09
5.44154e-06
-9.65807e-09
5.44263e-06
9.20119e-09
5.43875e-06
1.33679e-10
5.43936e-06
1.94508e-08
5.43525e-06
1.39905e-08
5.43559e-06
3.41481e-08
5.43359e-06
2.98888e-08
5.4348e-06
4.63544e-08
5.43407e-06
4.10267e-08
5.42345e-06
5.77387e-08
5.39716e-06
5.26128e-08
5.35865e-06
6.47493e-08
6.48863e-08
5.32074e-06
5.70692e-06
-6.81046e-08
5.71276e-06
-4.71272e-08
5.71487e-06
-2.58218e-08
5.71521e-06
-1.47997e-09
5.71499e-06
-1.32124e-08
5.7108e-06
-1.13857e-08
5.71104e-06
-2.2263e-08
5.70723e-06
-1.83057e-08
5.7114e-06
-2.249e-08
5.70772e-06
-1.75434e-08
5.71326e-06
-1.75615e-08
5.70735e-06
-1.36689e-08
5.71354e-06
-1.24374e-08
5.70621e-06
-9.86197e-09
5.71343e-06
-8.63713e-09
5.70475e-06
-5.55856e-09
5.71234e-06
-3.98099e-09
5.70217e-06
5.16809e-10
5.70728e-06
4.08326e-09
5.69797e-06
9.4424e-09
5.70253e-06
1.48976e-08
5.69555e-06
2.09686e-08
5.70062e-06
2.90805e-08
5.69355e-06
3.69515e-08
5.69383e-06
4.60799e-08
5.68135e-06
5.35033e-08
5.67645e-06
6.26424e-08
5.65931e-06
6.97521e-08
5.64438e-06
7.96819e-08
8.77897e-08
5.62147e-06
5.98104e-06
-5.99527e-08
5.98131e-06
-4.73923e-08
5.98877e-06
-3.32841e-08
5.98767e-06
-3.86758e-10
5.99015e-06
-1.56852e-08
5.98174e-06
-2.97618e-09
5.98756e-06
-2.80834e-08
5.97898e-06
-9.73012e-09
5.98817e-06
-3.1674e-08
5.97928e-06
-8.65447e-09
5.98849e-06
-2.6777e-08
5.9796e-06
-4.77571e-09
5.98739e-06
-2.02266e-08
5.97892e-06
-1.38915e-09
5.98346e-06
-1.31803e-08
5.97595e-06
1.95301e-09
5.97866e-06
-6.68863e-09
5.97297e-06
6.20532e-09
5.97571e-06
1.34245e-09
5.97067e-06
1.44787e-08
5.97354e-06
1.2034e-08
5.96888e-06
2.56282e-08
5.97242e-06
2.55371e-08
5.96735e-06
4.20174e-08
5.96685e-06
4.65806e-08
5.95495e-06
6.54076e-08
5.94879e-06
6.88024e-08
5.93188e-06
8.66574e-08
5.91921e-06
9.23586e-08
1.02781e-07
5.90422e-06
6.26825e-06
-5.27152e-08
6.2655e-06
-4.46441e-08
6.27624e-06
-4.40239e-08
6.27051e-06
5.34103e-09
6.27872e-06
-2.38893e-08
6.26614e-06
9.60464e-09
6.27582e-06
-3.77638e-08
6.26446e-06
1.62545e-09
6.27602e-06
-4.32357e-08
6.26484e-06
2.52658e-09
6.27598e-06
-3.79176e-08
6.26497e-06
6.239e-09
6.2751e-06
-3.03575e-08
6.26445e-06
9.26173e-09
6.27346e-06
-2.21924e-08
6.26228e-06
1.31367e-08
6.26874e-06
-1.31516e-08
6.25829e-06
1.66523e-08
6.26357e-06
-3.93087e-09
6.25631e-06
2.17377e-08
6.25965e-06
8.69578e-09
6.25322e-06
3.20514e-08
6.25518e-06
2.35814e-08
6.25286e-06
4.43411e-08
6.26047e-06
3.89677e-08
6.25639e-06
6.94855e-08
6.24745e-06
7.77443e-08
6.21273e-06
1.21375e-07
6.16407e-06
1.41018e-07
1.29485e-07
6.13737e-06
6.56775e-06
-4.49911e-08
6.5773e-06
-5.4199e-08
6.56167e-06
-2.83904e-08
6.5807e-06
-1.36917e-08
6.56141e-06
-4.60168e-09
6.58181e-06
-1.07973e-08
6.55991e-06
-1.58615e-08
6.58164e-06
-2.01051e-08
6.55978e-06
-2.1378e-08
6.58174e-06
-1.94326e-08
6.55977e-06
-1.59474e-08
6.58112e-06
-1.51097e-08
6.55996e-06
-9.19341e-09
6.57991e-06
-1.06889e-08
6.56022e-06
-2.50155e-09
6.57814e-06
-4.78742e-09
6.5605e-06
4.49312e-09
6.57453e-06
2.6215e-09
6.55791e-06
1.2683e-08
6.56656e-06
1.30929e-08
6.55431e-06
2.09408e-08
6.56115e-06
2.52134e-08
6.548e-06
3.67348e-08
6.55026e-06
4.20824e-08
6.54168e-06
4.75481e-08
6.56929e-06
4.18682e-08
6.60365e-06
4.33895e-08
6.68519e-06
3.98359e-08
6.78531e-06
4.08974e-08
5.86764e-08
6.85612e-06
6.88454e-06
-3.97366e-08
6.87799e-06
-4.76568e-08
6.89038e-06
-4.07757e-08
6.88275e-06
-6.05906e-09
6.89377e-06
-1.56246e-08
6.8833e-06
-3.30557e-10
6.88988e-06
-2.24342e-08
6.8817e-06
-1.19328e-08
6.88711e-06
-2.67852e-08
6.88075e-06
-1.3075e-08
6.88644e-06
-2.16318e-08
6.87968e-06
-8.34952e-09
6.88447e-06
-1.39862e-08
6.87615e-06
-2.37354e-09
6.88051e-06
-6.85562e-09
6.8729e-06
2.82336e-09
6.87719e-06
1.96067e-10
6.87065e-06
9.17062e-09
6.8741e-06
9.23061e-09
6.86921e-06
1.79831e-08
6.87177e-06
1.83786e-08
6.87234e-06
2.46386e-08
6.8861e-06
2.2978e-08
6.89888e-06
2.93023e-08
6.91002e-06
3.6412e-08
6.89654e-06
5.53435e-08
6.86919e-06
7.07393e-08
6.81662e-06
9.24048e-08
6.75047e-06
1.0705e-07
8.19095e-08
6.72724e-06
7.21244e-06
-3.30437e-08
7.22457e-06
-5.97832e-08
7.20226e-06
-1.84665e-08
7.22646e-06
-3.02576e-08
7.20281e-06
8.0256e-09
7.22827e-06
-2.5787e-08
7.20234e-06
3.49488e-09
7.2274e-06
-3.70007e-08
7.20358e-06
-2.95975e-09
7.22577e-06
-3.52664e-08
7.20483e-06
-6.8931e-10
7.22398e-06
-2.75038e-08
7.20612e-06
3.87308e-09
7.22164e-06
-1.789e-08
7.20577e-06
9.01759e-09
7.2167e-06
-8.11512e-09
7.20157e-06
1.53275e-08
7.20909e-06
1.65379e-09
7.19786e-06
2.04596e-08
7.20484e-06
1.10024e-08
7.19688e-06
2.63407e-08
7.20182e-06
1.96994e-08
7.18963e-06
3.5162e-08
7.19005e-06
2.88832e-08
7.19023e-06
3.62332e-08
7.22174e-06
2.38404e-08
7.2688e-06
2.36731e-08
7.3524e-06
8.80396e-09
7.4559e-06