/*--------------------------------*- C++ -*----------------------------------*\
| =========                 |                                                 |
| \\      /  F ield         | OpenFOAM: The Open Source CFD Toolbox           |
|  \\    /   O peration     | Version:  v2006                                 |
|   \\  /    A nd           | Website:  www.openfoam.com                      |
|    \\/     M anipulation  |                                                 |
\*---------------------------------------------------------------------------*/
FoamFile
{
    version     2.0;
    format      ascii;
    class       volVectorField;
    location    "1.9";
    object      U;
}
// * * * * * * * * * * * * * * * * * * * * * * * * * * * * * * * * * * * * * //

dimensions      [0 1 -1 0 0 0 0];


internalField   nonuniform List<vector> 
26400
(
(0.909042 -0.00476578 0)
(1.09187 0.00443538 0)
(0.9131 -0.00430161 0)
(1.09151 0.00387681 0)
(0.91943 -0.00383822 0)
(1.09213 0.00334574 0)
(0.92509 -0.00346578 0)
(1.09268 0.00284641 0)
(0.930049 -0.00313745 0)
(1.09315 0.00242856 0)
(0.934333 -0.00283078 0)
(1.09359 0.0020726 0)
(0.937938 -0.00255581 0)
(1.09408 0.00174576 0)
(0.940827 -0.00231615 0)
(1.09469 0.00144089 0)
(0.942923 -0.00210316 0)
(1.09549 0.00116415 0)
(0.944111 -0.00190444 0)
(1.09656 0.000918442 0)
(0.944229 -0.00170779 0)
(1.09801 0.000700426 0)
(0.943043 -0.00149318 0)
(1.09993 0.000500138 0)
(0.940222 -0.00121036 0)
(1.10228 0.000292806 0)
(0.935254 -0.000669738 0)
(1.10458 2.59283e-05 0)
(0.926799 0.00111131 0)
(1.10573 0.000367215 0)
(0.915932 -0.00480626 0)
(1.08604 0.0044372 0)
(0.922498 -0.00436675 0)
(1.08564 0.00387561 0)
(0.930484 -0.00391513 0)
(1.08561 0.00334408 0)
(0.937504 -0.00354631 0)
(1.0851 0.00284828 0)
(0.943797 -0.00321871 0)
(1.08418 0.00243427 0)
(0.949561 -0.00291232 0)
(1.08286 0.00208217 0)
(0.954935 -0.00263734 0)
(1.08112 0.00175963 0)
(0.96004 -0.00239662 0)
(1.07891 0.00146034 0)
(0.965007 -0.00218086 0)
(1.07605 0.00119163 0)
(0.970017 -0.00197749 0)
(1.07234 0.000958515 0)
(0.975308 -0.00177342 0)
(1.06742 0.000761187 0)
(0.981175 -0.00154292 0)
(1.0608 0.000589112 0)
(0.987931 -0.0012168 0)
(1.05178 0.000395188 0)
(0.995768 -0.000545764 0)
(1.03909 0.000215733 0)
(1.00436 0.00202125 0)
(1.02009 0.00151552 0)
(0.928114 -0.00485266 0)
(1.07426 0.00441359 0)
(0.937565 -0.00442855 0)
(1.07358 0.00384905 0)
(0.947696 -0.00397981 0)
(1.07248 0.00331768 0)
(0.956462 -0.00360379 0)
(1.07043 0.00282259 0)
(0.964333 -0.00326528 0)
(1.06764 0.00240526 0)
(0.971629 -0.00294472 0)
(1.0642 0.00204524 0)
(0.978534 -0.00265054 0)
(1.06016 0.00170911 0)
(0.985156 -0.00238267 0)
(1.05555 0.00138838 0)
(0.991544 -0.00212779 0)
(1.05038 0.00108646 0)
(0.99769 -0.00186812 0)
(1.04471 0.000803299 0)
(1.0035 -0.00158448 0)
(1.03866 0.000535744 0)
(1.00874 -0.00125073 0)
(1.03239 0.00028211 0)
(1.01302 -0.000819236 0)
(1.02613 4.77749e-05 0)
(1.01565 -0.000129556 0)
(1.01992 5.92772e-05 0)
(1.01544 0.00216771 0)
(1.01418 0.00376273 0)
(0.943427 -0.00488571 0)
(1.05836 0.00433872 0)
(0.954358 -0.00446265 0)
(1.05721 0.00377262 0)
(0.965636 -0.00400158 0)
(1.05522 0.00324023 0)
(0.975151 -0.00360486 0)
(1.0521 0.00274121 0)
(0.98341 -0.00324362 0)
(1.0483 0.00231383 0)
(0.990727 -0.00289808 0)
(1.04411 0.00193891 0)
(0.997225 -0.0025759 0)
(1.0397 0.00158418 0)
(1.00292 -0.00227694 0)
(1.03529 0.0012426 0)
(1.00778 -0.00198889 0)
(1.03104 0.000920013 0)
(1.01171 -0.00169617 0)
(1.02712 0.000620567 0)
(1.01463 -0.00138229 0)
(1.02365 0.000348083 0)
(1.01642 -0.00102713 0)
(1.02065 0.000113606 0)
(1.01696 -0.000578452 0)
(1.01797 -4.60228e-05 0)
(1.01606 0.000158613 0)
(1.01519 0.000240876 0)
(1.0134 0.0025444 0)
(1.01234 0.00593985 0)
(0.959203 -0.00489752 0)
(1.04141 0.00422453 0)
(0.969528 -0.00446691 0)
(1.03993 0.00365711 0)
(0.980194 -0.00398684 0)
(1.0377 0.00312421 0)
(0.988838 -0.00356558 0)
(1.03457 0.00262317 0)
(0.995904 -0.00318147 0)
(1.03116 0.00218999 0)
(1.00169 -0.00281498 0)
(1.02779 0.00180823 0)
(1.00633 -0.00247361 0)
(1.02467 0.00144793 0)
(1.0099 -0.00215776 0)
(1.02195 0.00110377 0)
(1.01244 -0.00185573 0)
(1.01968 0.000783207 0)
(1.01405 -0.00155237 0)
(1.01785 0.000492408 0)
(1.01482 -0.00123113 0)
(1.01635 0.000239477 0)
(1.01482 -0.000874582 0)
(1.015 4.06562e-05 0)
(1.01406 -0.000461847 0)
(1.01351 -5.61543e-06 0)
(1.01247 2.8421e-05 0)
(1.01145 0.00109686 0)
(1.00991 0.00165043 0)
(1.00918 0.00843327 0)
(0.97306 -0.00488617 0)
(1.02635 0.00409727 0)
(0.98109 -0.0044467 0)
(1.0249 0.00352914 0)
(0.989703 -0.00395022 0)
(1.02311 0.00299851 0)
(0.996327 -0.00350891 0)
(1.0208 0.00250125 0)
(1.00137 -0.00310873 0)
(1.01855 0.00206988 0)
(1.00516 -0.00272985 0)
(1.01659 0.00169013 0)
(1.00789 -0.00237827 0)
(1.01499 0.00133305 0)
(1.00972 -0.00205358 0)
(1.01375 0.000993229 0)
(1.01081 -0.00174341 0)
(1.0128 0.000678335 0)
(1.01129 -0.00143243 0)
(1.01203 0.000396837 0)
(1.01129 -0.00110605 0)
(1.0113 0.000164451 0)
(1.01085 -0.000748962 0)
(1.01044 2.43375e-06 0)
(1.00992 -0.000363426 0)
(1.0092 4.23823e-05 0)
(1.00838 0.000224272 0)
(1.0073 0.00106017 0)
(1.00624 0.00260531 0)
(1.00552 0.00619754 0)
(0.983641 -0.00485424 0)
(1.0149 0.00397841 0)
(0.988691 -0.00440934 0)
(1.01378 0.00341044 0)
(0.994745 -0.00390298 0)
(1.01273 0.00288371 0)
(0.999136 -0.00344779 0)
(1.01142 0.00239305 0)
(1.00226 -0.00303717 0)
(1.01027 0.00196551 0)
(1.00445 -0.00265012 0)
(1.0094 0.00158785 0)
(1.00593 -0.00228993 0)
(1.00877 0.00123103 0)
(1.00685 -0.00195445 0)
(1.0083 0.000888443 0)
(1.00732 -0.00162984 0)
(1.00791 0.000567144 0)
(1.00745 -0.00129987 0)
(1.00752 0.000277482 0)
(1.00727 -0.000950971 0)
(1.00703 4.01487e-05 0)
(1.00678 -0.000553103 0)
(1.0063 -0.00012522 0)
(1.00588 -0.000110458 0)
(1.00516 -0.000107902 0)
(1.0044 0.000770067 0)
(1.00345 0.000589843 0)
(1.00241 0.00409107 0)
(1.00198 0.0046655 0)
(0.99078 -0.00480658 0)
(1.0073 0.00387733 0)
(0.993119 -0.00436042 0)
(1.00657 0.00330944 0)
(0.996934 -0.00384995 0)
(1.00617 0.00278496 0)
(0.999545 -0.00338503 0)
(1.00558 0.00229921 0)
(1.0013 -0.00296642 0)
(1.00511 0.00187279 0)
(1.00251 -0.00257252 0)
(1.0048 0.00149399 0)
(1.00331 -0.00220461 0)
(1.00459 0.00113489 0)
(1.0038 -0.00186024 0)
(1.00442 0.00078959 0)
(1.00403 -0.0015263 0)
(1.00423 0.00046742 0)
(1.00403 -0.0011893 0)
(1.00396 0.000184375 0)
(1.0038 -0.000841899 0)
(1.00354 -3.20929e-05 0)
(1.00329 -0.000471802 0)
(1.00286 -0.000123083 0)
(1.00239 -9.1205e-05 0)
(1.00177 0.000136926 0)
(1.00096 0.000288115 0)
(1.0002 0.00185843 0)
(0.999232 0.00259634 0)
(0.999007 0.0102065 0)
(0.995115 -0.00474756 0)
(1.00279 0.00379223 0)
(0.995495 -0.00430244 0)
(1.00236 0.00322325 0)
(0.997753 -0.00379126 0)
(1.00235 0.00269705 0)
(0.999205 -0.00331829 0)
(1.00214 0.00221231 0)
(1.00014 -0.0028917 0)
(1.00197 0.00178278 0)
(1.00078 -0.00249018 0)
(1.00187 0.0013987 0)
(1.00122 -0.00211345 0)
(1.0018 0.00103408 0)
(1.00148 -0.0017594 0)
(1.00172 0.000684577 0)
(1.00157 -0.00141662 0)
(1.00158 0.000363072 0)
(1.00149 -0.00107488 0)
(1.00133 9.06429e-05 0)
(1.00121 -0.00072198 0)
(1.00092 -0.000109148 0)
(1.00067 -0.000369702 0)
(1.00024 -0.00014879 0)
(0.999765 7.27728e-06 0)
(0.999119 0.000192476 0)
(0.99843 0.000404074 0)
(0.997607 0.00204126 0)
(0.997201 0.00232085 0)
(0.996686 0.0100177 0)
(0.997541 -0.00467984 0)
(1.00032 0.00371563 0)
(0.996732 -0.00423582 0)
(1.00006 0.00314427 0)
(0.998063 -0.00372544 0)
(1.00025 0.00261222 0)
(0.998852 -0.00324479 0)
(1.0002 0.00212498 0)
(0.99932 -0.00280913 0)
(1.00013 0.00168874 0)
(0.999641 -0.00239802 0)
(1.00009 0.00129521 0)
(0.999856 -0.00200944 0)
(1.00004 0.000919884 0)
(0.999963 -0.00164071 0)
(0.999969 0.000559201 0)
(0.999949 -0.00128124 0)
(0.999825 0.000228533 0)
(0.999795 -0.000922237 0)
(0.99957 -4.87227e-05 0)
(0.999464 -0.000547918 0)
(0.999139 -0.000248893 0)
(0.99889 -0.000157734 0)
(0.99843 -0.000300904 0)
(0.99797 0.000320247 0)
(0.997303 -0.00010883 0)
(0.996664 0.00138441 0)
(0.995849 0.000760022 0)
(0.995627 0.00391572 0)
(0.995292 0.00263651 0)
(0.998825 -0.00460469 0)
(0.99903 0.00363979 0)
(0.997378 -0.00416017 0)
(0.998861 0.00306554 0)
(0.998214 -0.00365131 0)
(0.999126 0.00252495 0)
(0.99865 -0.00316353 0)
(0.999138 0.00203426 0)
(0.998864 -0.00271923 0)
(0.999099 0.00159205 0)
(0.998995 -0.00230073 0)
(0.999065 0.00119263 0)
(0.999067 -0.00190615 0)
(0.999019 0.000814953 0)
(0.999068 -0.0015344 0)
(0.998938 0.000459059 0)
(0.998976 -0.00117857 0)
(0.998781 0.000145564 0)
(0.998763 -0.00083353 0)
(0.99851 -9.84575e-05 0)
(0.998386 -0.00049704 0)
(0.998058 -0.000231912 0)
(0.997777 -0.000157878 0)
(0.997331 -0.000196805 0)
(0.996833 0.000291822 0)
(0.996222 0.000135055 0)
(0.995507 0.00136858 0)
(0.994842 0.0010104 0)
(0.994303 0.00402844 0)
(0.994754 0.00165343 0)
(0.99948 -0.00452255 0)
(0.998384 0.003559 0)
(0.997719 -0.0040746 0)
(0.998256 0.00298179 0)
(0.998303 -0.00356703 0)
(0.998554 0.00242999 0)
(0.998557 -0.00307122 0)
(0.998593 0.00193365 0)
(0.998636 -0.0026156 0)
(0.998565 0.00148215 0)
(0.99866 -0.00218542 0)
(0.998527 0.00107153 0)
(0.998647 -0.00177818 0)
(0.998473 0.000683231 0)
(0.998584 -0.00139344 0)
(0.99838 0.000320227 0)
(0.998443 -0.00102644 0)
(0.998209 6.21588e-06 0)
(0.998194 -0.00067097 0)
(0.997919 -0.000231387 0)
(0.997791 -0.000335748 0)
(0.997446 -0.000336094 0)
(0.997165 -2.30898e-06 0)
(0.9967 -0.000259982 0)
(0.996218 0.000433267 0)
(0.995593 0.000215898 0)
(0.994919 0.00128209 0)
(0.994296 0.00165135 0)
(0.993783 0.00395395 0)
(0.994725 0.00611409 0)
(0.999807 -0.00443374 0)
(0.998069 0.00347023 0)
(0.997898 -0.0039788 0)
(0.997963 0.00289109 0)
(0.998356 -0.00347304 0)
(0.998279 0.00232739 0)
(0.99852 -0.00297061 0)
(0.998333 0.00182695 0)
(0.99853 -0.00250586 0)
(0.998311 0.00137008 0)
(0.998495 -0.0020693 0)
(0.998271 0.000955808 0)
(0.998435 -0.00165955 0)
(0.998211 0.000570412 0)
(0.998335 -0.00127932 0)
(0.998111 0.000221895 0)
(0.998167 -0.000927783 0)
(0.997933 -6.23556e-05 0)
(0.997897 -0.000605279 0)
(0.997633 -0.000246753 0)
(0.997479 -0.000317031 0)
(0.997149 -0.000270879 0)
(0.996842 -3.52078e-05 0)
(0.996395 -5.52427e-05 0)
(0.995904 0.000269106 0)
(0.995296 0.000632025 0)
(0.994665 0.000997466 0)
(0.994116 0.00244355 0)
(0.993859 0.00364892 0)
(0.994734 0.0103016 0)
(0.999968 -0.00433808 0)
(0.997922 0.00337117 0)
(0.997994 -0.00387131 0)
(0.997829 0.00279068 0)
(0.998391 -0.00336686 0)
(0.998157 0.00221313 0)
(0.99851 -0.00285704 0)
(0.998221 0.0017072 0)
(0.998485 -0.00238124 0)
(0.998203 0.00124329 0)
(0.998422 -0.00193583 0)
(0.998162 0.000822806 0)
(0.998337 -0.00152031 0)
(0.998099 0.000436853 0)
(0.998219 -0.0011397 0)
(0.997996 9.7591e-05 0)
(0.998038 -0.000795529 0)
(0.997812 -0.000166786 0)
(0.997761 -0.00049737 0)
(0.997505 -0.000310299 0)
(0.997341 -0.000234396 0)
(0.997012 -0.000288296 0)
(0.996712 4.28679e-05 0)
(0.996246 -3.16827e-05 0)
(0.995798 0.000466971 0)
(0.995168 0.000637173 0)
(0.994632 0.00149629 0)
(0.994112 0.00237201 0)
(0.994382 0.00398941 0)
(0.995049 0.00644491 0)
(1.00005 -0.00423556 0)
(0.997853 0.00326078 0)
(0.998054 -0.00375167 0)
(0.997768 0.00268009 0)
(0.998421 -0.00324889 0)
(0.998103 0.00208803 0)
(0.99852 -0.00273307 0)
(0.998173 0.00157823 0)
(0.998478 -0.0022485 0)
(0.99816 0.00111073 0)
(0.9984 -0.00179851 0)
(0.998122 0.000689853 0)
(0.998301 -0.00138426 0)
(0.99806 0.000312194 0)
(0.998171 -0.00101356 0)
(0.997959 -4.99193e-06 0)
(0.997982 -0.000689007 0)
(0.997775 -0.00023458 0)
(0.9977 -0.00042376 0)
(0.997469 -0.000326959 0)
(0.997278 -0.000194103 0)
(0.996979 -0.000258509 0)
(0.99665 8.1385e-05 0)
(0.996234 -3.26445e-05 0)
(0.99575 0.000706309 0)
(0.995206 0.000576793 0)
(0.994651 0.00207007 0)
(0.994234 0.00227127 0)
(0.994202 0.00460595 0)
(0.995501 0.00287502 0)
(1.0001 -0.00412574 0)
(0.997816 0.00313763 0)
(0.998101 -0.00361842 0)
(0.997735 0.00255731 0)
(0.998454 -0.00311714 0)
(0.998072 0.00194929 0)
(0.998545 -0.00259572 0)
(0.998145 0.00143546 0)
(0.998498 -0.00210224 0)
(0.998132 0.000964945 0)
(0.998415 -0.00164889 0)
(0.998093 0.000545574 0)
(0.998312 -0.00123883 0)
(0.998029 0.000180995 0)
(0.998181 -0.00088695 0)
(0.997925 -0.000106449 0)
(0.997993 -0.000598079 0)
(0.997738 -0.000286756 0)
(0.997716 -0.000376878 0)
(0.997428 -0.000314846 0)
(0.997302 -0.000193142 0)
(0.996939 -0.000170242 0)
(0.996683 4.33859e-05 0)
(0.996216 0.000203783 0)
(0.99581 0.000546928 0)
(0.995243 0.00103807 0)
(0.994796 0.00181624 0)
(0.994382 0.00307344 0)
(0.994384 0.00481805 0)
(0.99616 0.00718398 0)
(1.00014 -0.00400911 0)
(0.997801 0.00300219 0)
(0.998135 -0.00347237 0)
(0.997721 0.0024245 0)
(0.998479 -0.00297459 0)
(0.99806 0.00180209 0)
(0.998566 -0.0024515 0)
(0.998135 0.00128885 0)
(0.998515 -0.00195509 0)
(0.998124 0.000823606 0)
(0.998428 -0.00150763 0)
(0.998087 0.000416331 0)
(0.998322 -0.00111503 0)
(0.998025 8.16079e-05 0)
(0.998189 -0.000801513 0)
(0.997922 -0.000157164 0)
(0.998002 -0.000573149 0)
(0.997735 -0.000265417 0)
(0.997729 -0.000414475 0)
(0.997427 -0.000215599 0)
(0.997322 -0.000284582 0)
(0.996944 9.03761e-06 0)
(0.996721 -0.000114975 0)
(0.996233 0.00056695 0)
(0.995883 0.00029827 0)
(0.995319 0.00163826 0)
(0.994973 0.00145412 0)
(0.994643 0.00391992 0)
(0.994899 0.00490913 0)
(0.996373 0.0117305 0)
(1.00015 -0.00388378 0)
(0.997805 0.00285075 0)
(0.998156 -0.00330955 0)
(0.997726 0.0022761 0)
(0.998493 -0.00281489 0)
(0.998069 0.00163804 0)
(0.998576 -0.00229057 0)
(0.998148 0.00112605 0)
(0.998521 -0.00179191 0)
(0.99814 0.000667449 0)
(0.998431 -0.00135017 0)
(0.998104 0.000273466 0)
(0.998325 -0.000977078 0)
(0.998041 -3.04301e-05 0)
(0.998194 -0.000689273 0)
(0.997936 -0.000228067 0)
(0.998012 -0.000500771 0)
(0.997748 -0.000291006 0)
(0.997746 -0.000363774 0)
(0.997438 -0.000223482 0)
(0.99735 -0.000208051 0)
(0.996956 -2.40595e-05 0)
(0.996774 8.03557e-05 0)
(0.996266 0.000416002 0)
(0.995982 0.000740909 0)
(0.995407 0.00143291 0)
(0.995176 0.00224016 0)
(0.994947 0.00351697 0)
(0.995776 0.00497269 0)
(0.996793 0.00698011 0)
(1.00016 -0.0037511 0)
(0.997819 0.0026856 0)
(0.998174 -0.00313315 0)
(0.997742 0.00211539 0)
(0.998503 -0.00264357 0)
(0.998091 0.00146196 0)
(0.998584 -0.00212134 0)
(0.998175 0.000953731 0)
(0.998524 -0.00162455 0)
(0.998171 0.000505993 0)
(0.99843 -0.00119632 0)
(0.998139 0.000135839 0)
(0.998321 -0.000875735 0)
(0.998079 -0.000127149 0)
(0.998189 -0.000634472 0)
(0.997974 -0.00026832 0)
(0.998008 -0.000483176 0)
(0.997789 -0.00028501 0)
(0.997744 -0.000355248 0)
(0.997486 -0.000204407 0)
(0.997352 -0.000163465 0)
(0.997023 -4.69627e-05 0)
(0.996783 0.000250464 0)
(0.99637 0.000282599 0)
(0.996037 0.00113602 0)
(0.995596 0.00128087 0)
(0.99532 0.00296138 0)
(0.995154 0.00330971 0)
(0.995526 0.00513579 0)
(0.997322 0.00276594 0)
(1.00017 -0.00361598 0)
(0.997833 0.00251461 0)
(0.998198 -0.00295112 0)
(0.99775 0.00195868 0)
(0.998525 -0.00247538 0)
(0.9981 0.00130135 0)
(0.998608 -0.00196897 0)
(0.998184 0.000814379 0)
(0.998549 -0.00149259 0)
(0.998178 0.000400536 0)
(0.998459 -0.00109869 0)
(0.998141 8.08769e-05 0)
(0.998355 -0.000791133 0)
(0.998077 -0.000143608 0)
(0.99823 -0.000610996 0)
(0.997969 -0.000230952 0)
(0.998057 -0.000507241 0)
(0.997781 -0.000199002 0)
(0.9978 -0.000409557 0)
(0.997482 -6.69087e-05 0)
(0.997413 -0.000233321 0)
(0.997034 0.000164714 0)
(0.996861 9.94085e-05 0)
(0.996422 0.000650477 0)
(0.996174 0.000909831 0)
(0.995737 0.00181803 0)
(0.99556 0.00266582 0)
(0.995375 0.0042639 0)
(0.995708 0.00579367 0)
(0.998123 0.00770251 0)
(1.00016 -0.00345455 0)
(0.997864 0.00229879 0)
(0.998208 -0.00272273 0)
(0.997775 0.00174246 0)
(0.99853 -0.0022457 0)
(0.998126 0.00106109 0)
(0.998616 -0.00173738 0)
(0.998211 0.000573397 0)
(0.998557 -0.00126092 0)
(0.998205 0.000169895 0)
(0.998469 -0.000892262 0)
(0.998169 -0.000121491 0)
(0.998367 -0.000626742 0)
(0.9981 -0.000291125 0)
(0.998247 -0.000498663 0)
(0.99799 -0.000314679 0)
(0.998079 -0.000456294 0)
(0.997804 -0.00021855 0)
(0.997829 -0.000434358 0)
(0.997512 3.26118e-06 0)
(0.997452 -0.000360776 0)
(0.997073 0.000433331 0)
(0.996924 -0.000123849 0)
(0.996498 0.00121754 0)
(0.996296 0.000562542 0)
(0.995904 0.00255848 0)
(0.99583 0.00214866 0)
(0.995764 0.00531054 0)
(0.996282 0.00625441 0)
(0.998021 0.0129894 0)
(1.00014 -0.0033257 0)
(0.997928 0.00213188 0)
(0.998195 -0.00254625 0)
(0.997833 0.00160948 0)
(0.99851 -0.0021057 0)
(0.998187 0.000946486 0)
(0.998599 -0.00164587 0)
(0.998273 0.000514243 0)
(0.998541 -0.00122787 0)
(0.998265 0.000185262 0)
(0.998457 -0.000941501 0)
(0.998222 -3.06231e-05 0)
(0.998362 -0.000794846 0)
(0.998149 -0.000103278 0)
(0.998252 -0.000727547 0)
(0.998032 -8.04243e-05 0)
(0.998093 -0.000686974 0)
(0.997841 -2.8269e-06 0)
(0.997856 -0.000603327 0)
(0.997546 0.000130902 0)
(0.997504 -0.000395693 0)
(0.997119 0.00042708 0)
(0.997017 9.37802e-05 0)
(0.996579 0.00105672 0)
(0.996442 0.00104637 0)
(0.996064 0.0023742 0)
(0.996125 0.00300646 0)
(0.99624 0.00476723 0)
(0.997367 0.0057815 0)
(0.998305 0.00707956 0)
(1.0001 -0.00312729 0)
(0.998005 0.00185416 0)
(0.998182 -0.00225738 0)
(0.997903 0.0013324 0)
(0.998491 -0.00181071 0)
(0.998262 0.000643705 0)
(0.998583 -0.00134888 0)
(0.998351 0.000213345 0)
(0.998526 -0.000918933 0)
(0.998341 -0.000100837 0)
(0.998443 -0.000611353 0)
(0.998297 -0.000322501 0)
(0.998352 -0.000418325 0)
(0.998222 -0.000439462 0)
(0.998242 -0.00027355 0)
(0.998108 -0.00051557 0)
(0.998082 -0.000100858 0)
(0.997926 -0.000566843 0)
(0.997842 0.000166375 0)
(0.99765 -0.000582049 0)
(0.997493 0.000552795 0)
(0.997254 -0.00048029 0)
(0.997026 0.00120165 0)
(0.996763 -5.14163e-05 0)
(0.996537 0.00232993 0)
(0.996371 0.00124424 0)
(0.996315 0.00447587 0)
(0.996427 0.00354965 0)
(0.996778 0.00650116 0)
(0.998809 0.0025287 0)
(1.00008 -0.00299491 0)
(0.998064 0.0016745 0)
(0.998194 -0.00207276 0)
(0.997949 0.00119781 0)
(0.998501 -0.0016746 0)
(0.998307 0.000538796 0)
(0.998605 -0.00128544 0)
(0.998394 0.000175796 0)
(0.998556 -0.000958256 0)
(0.998377 -2.41181e-05 0)
(0.99848 -0.000796419 0)
(0.998324 -9.68387e-05 0)
(0.998396 -0.000766725 0)
(0.998245 -6.44293e-05 0)
(0.998291 -0.000789985 0)
(0.99813 3.84432e-05 0)
(0.998136 -0.000824824 0)
(0.997953 0.000226328 0)
(0.997903 -0.000832316 0)
(0.997679 0.000596218 0)
(0.997567 -0.000755493 0)
(0.997302 0.00113563 0)
(0.997134 -0.000458332 0)
(0.996864 0.00206466 0)
(0.996725 0.000393527 0)
(0.996576 0.00353239 0)
(0.99664 0.00200699 0)
(0.996779 0.00622644 0)
(0.997183 0.00608565 0)
(0.999025 0.0136014 0)
(1.00005 -0.00279215 0)
(0.998148 0.00139476 0)
(0.99819 -0.00178488 0)
(0.998021 0.000943779 0)
(0.998488 -0.00140524 0)
(0.998383 0.000291351 0)
(0.998601 -0.00105698 0)
(0.998469 -3.87877e-05 0)
(0.998559 -0.000776113 0)
(0.998443 -0.000186908 0)
(0.99849 -0.000664186 0)
(0.998383 -0.000222524 0)
(0.998414 -0.000629988 0)
(0.998297 -0.0002149 0)
(0.998318 -0.000597307 0)
(0.998176 -0.000209182 0)
(0.998175 -0.000524913 0)
(0.997992 -0.000174694 0)
(0.99797 -0.000394991 0)
(0.997722 -9.52759e-06 0)
(0.997659 -6.05085e-05 0)
(0.997357 0.000420222 0)
(0.997278 0.000505944 0)
(0.996967 0.0012071 0)
(0.996918 0.0015734 0)
(0.996745 0.00266508 0)
(0.997002 0.00344792 0)
(0.997415 0.00482096 0)
(0.998664 0.00580616 0)
(0.999235 0.00720371 0)
(1.00004 -0.00264208 0)
(0.99823 0.0011764 0)
(0.998201 -0.00156868 0)
(0.998092 0.000775876 0)
(0.998488 -0.0012306 0)
(0.99846 0.000156357 0)
(0.998608 -0.000918192 0)
(0.998549 -0.000125016 0)
(0.998569 -0.000670637 0)
(0.998522 -0.000235217 0)
(0.9985 -0.000557819 0)
(0.998464 -0.00028555 0)
(0.99842 -0.000463628 0)
(0.998385 -0.000341241 0)
(0.998313 -0.000285701 0)
(0.998275 -0.000447357 0)
(0.998162 -2.45976e-05 0)
(0.998106 -0.000575833 0)
(0.997949 0.000375418 0)
(0.997865 -0.000707193 0)
(0.997661 0.000948929 0)
(0.997531 -0.000654543 0)
(0.997304 0.00179368 0)
(0.997196 -0.000205452 0)
(0.997057 0.00310234 0)
(0.997099 0.00122339 0)
(0.99717 0.00536815 0)
(0.997437 0.00335669 0)
(0.997796 0.00648411 0)
(0.999755 0.000924117 0)
(1.00008 -0.0024068 0)
(0.998253 0.000857286 0)
(0.998279 -0.00126249 0)
(0.998092 0.000499949 0)
(0.998559 -0.000969025 0)
(0.998461 -9.17476e-05 0)
(0.998693 -0.000745749 0)
(0.998547 -0.00027996 0)
(0.998663 -0.000603031 0)
(0.998514 -0.000263653 0)
(0.998598 -0.000640144 0)
(0.998455 -0.000167096 0)
(0.998518 -0.000756976 0)
(0.998382 -1.35664e-05 0)
(0.998412 -0.000917451 0)
(0.998277 0.000243818 0)
(0.99826 -0.00104913 0)
(0.998122 0.000573393 0)
(0.998045 -0.00109199 0)
(0.997895 0.000978708 0)
(0.997755 -0.000966997 0)
(0.997599 0.00149987 0)
(0.997441 -0.000474491 0)
(0.997332 0.00232932 0)
(0.997291 0.000518158 0)
(0.997368 0.00373901 0)
(0.99757 0.00249579 0)
(0.997814 0.00689252 0)
(0.998099 0.00734736 0)
(0.99988 0.0135414 0)
(1.00009 -0.00230883 0)
(0.998321 0.000722603 0)
(0.99832 -0.00113226 0)
(0.998135 0.000448383 0)
(0.998588 -0.000909139 0)
(0.998502 -0.000110688 0)
(0.99874 -0.000791947 0)
(0.998586 -0.000236239 0)
(0.998721 -0.000691926 0)
(0.998541 -0.00018661 0)
(0.998663 -0.000725361 0)
(0.998472 -9.75835e-05 0)
(0.998591 -0.000812555 0)
(0.998383 4.05222e-05 0)
(0.998503 -0.000942921 0)
(0.998273 0.000294427 0)
(0.998368 -0.00106524 0)
(0.998111 0.000637941 0)
(0.998176 -0.00113593 0)
(0.997896 0.00111489 0)
(0.99792 -0.00102025 0)
(0.997634 0.00178928 0)
(0.997635 -0.000577009 0)
(0.997418 0.00272865 0)
(0.997533 0.000327316 0)
(0.997586 0.00397254 0)
(0.998121 0.00192288 0)
(0.998765 0.00660421 0)
(0.999784 0.00668985 0)
(0.999306 0.0134925 0)
(1.00004 -0.00203231 0)
(0.998457 0.000338871 0)
(0.998315 -0.000733846 0)
(0.998242 0.000111152 0)
(0.998568 -0.000482474 0)
(0.998607 -0.000444343 0)
(0.998737 -0.000377376 0)
(0.998693 -0.000610942 0)
(0.998725 -0.000218311 0)
(0.998646 -0.000679703 0)
(0.998667 -9.16781e-05 0)
(0.998579 -0.000788595 0)
(0.998597 6.84672e-05 0)
(0.998495 -0.000915832 0)
(0.998511 0.000298404 0)
(0.998384 -0.0010515 0)
(0.998381 0.000563875 0)
(0.998227 -0.00110876 0)
(0.998202 0.000892984 0)
(0.99802 -0.00101254 0)
(0.997967 0.00132475 0)
(0.997781 -0.000663021 0)
(0.997733 0.00197665 0)
(0.997616 0.000109342 0)
(0.997687 0.00304824 0)
(0.997835 0.00122251 0)
(0.998376 0.00410372 0)
(0.99919 0.00166997 0)
(1.00025 0.00349072 0)
(0.999796 0.000111653 0)
(1.00002 -0.00190025 0)
(0.998584 0.000156021 0)
(0.998343 -0.000707165 0)
(0.998333 9.9932e-05 0)
(0.998582 -0.00065263 0)
(0.998691 -0.000300993 0)
(0.998767 -0.000660652 0)
(0.998781 -0.000362358 0)
(0.99876 -0.000559451 0)
(0.998733 -0.000369493 0)
(0.998698 -0.000466834 0)
(0.998669 -0.000436969 0)
(0.998623 -0.000340656 0)
(0.998591 -0.000539635 0)
(0.99853 -0.000165763 0)
(0.99849 -0.00066693 0)
(0.998406 9.64022e-05 0)
(0.998345 -0.000701907 0)
(0.99824 0.00044835 0)
(0.998156 -0.000564232 0)
(0.998036 0.00094197 0)
(0.997949 -0.000119682 0)
(0.997854 0.00168546 0)
(0.997843 0.000733125 0)
(0.997858 0.00273588 0)
(0.998028 0.00184134 0)
(0.998285 0.00345792 0)
(0.99873 0.00154919 0)
(0.999328 0.0018806 0)
(1.00153 0.000166273 0)
(1.00003 -0.00174344 0)
(0.998661 -5.78934e-05 0)
(0.998424 -0.000518377 0)
(0.998367 -2.71946e-05 0)
(0.99865 -0.000261992 0)
(0.998727 -0.000530454 0)
(0.998851 -0.000348276 0)
(0.998823 -0.000619318 0)
(0.998847 -0.000277196 0)
(0.998775 -0.000611925 0)
(0.998782 -0.00022068 0)
(0.998713 -0.000598359 0)
(0.998705 -0.000173062 0)
(0.99864 -0.000563311 0)
(0.998611 -0.000126476 0)
(0.998547 -0.000496618 0)
(0.998492 -6.47569e-05 0)
(0.998413 -0.000358985 0)
(0.998339 9.88118e-05 0)
(0.998246 -6.77811e-05 0)
(0.998167 0.000478393 0)
(0.998075 0.000476442 0)
(0.998034 0.00116668 0)
(0.998006 0.00130299 0)
(0.998073 0.00205166 0)
(0.998166 0.00238482 0)
(0.998388 0.00320036 0)
(0.998864 0.00385277 0)
(0.999993 0.00490226 0)
(1.00376 0.00611179 0)
(1.00003 -0.00144336 0)
(0.998781 -0.00038324 0)
(0.998491 -0.000310837 0)
(0.998462 -0.000163875 0)
(0.998682 -0.000271608 0)
(0.998792 -0.000428948 0)
(0.998904 -0.000506738 0)
(0.998896 -0.000397711 0)
(0.998907 -0.000607328 0)
(0.998849 -0.000229372 0)
(0.998845 -0.000725169 0)
(0.998786 -2.00844e-05 0)
(0.998772 -0.000876193 0)
(0.99871 0.000211022 0)
(0.998683 -0.00102458 0)
(0.998614 0.000487641 0)
(0.998571 -0.00109238 0)
(0.99849 0.000786408 0)
(0.998435 -0.000969807 0)
(0.99835 0.00118813 0)
(0.99829 -0.000556775 0)
(0.998226 0.00177653 0)
(0.998186 0.000156618 0)
(0.998192 0.00248955 0)
(0.99828 0.00100318 0)
(0.998486 0.00350409 0)
(0.998862 0.00250056 0)
(0.999408 0.00636783 0)
(1.0002 0.0074202 0)
(1.00285 0.0124444 0)
(1.00001 -0.00156452 0)
(0.998901 -0.000269749 0)
(0.998557 -0.000585371 0)
(0.99852 0.000127767 0)
(0.998742 -0.000463929 0)
(0.998854 -0.000215021 0)
(0.998974 -0.000656536 0)
(0.998958 -0.000303376 0)
(0.99899 -0.000673152 0)
(0.998904 -0.000258339 0)
(0.998937 -0.000665416 0)
(0.998832 -0.000201538 0)
(0.998871 -0.000667361 0)
(0.998752 -0.00015767 0)
(0.998794 -0.000656694 0)
(0.998665 -8.58614e-05 0)
(0.99869 -0.000545962 0)
(0.998561 0.000100065 0)
(0.99857 -0.000244669 0)
(0.998454 0.000480225 0)
(0.998452 0.000295857 0)
(0.998362 0.00109567 0)
(0.998368 0.00105203 0)
(0.998346 0.00193107 0)
(0.998515 0.0020276 0)
(0.998725 0.00293514 0)
(0.999463 0.00309373 0)
(1.00063 0.0038354 0)
(1.00226 0.00394717 0)
(1.00291 0.00509755 0)
(0.999979 -0.00093478 0)
(0.999065 -0.000950499 0)
(0.998616 -1.20013e-05 0)
(0.998676 -0.000469512 0)
(0.99874 0.000258153 0)
(0.998971 -0.000883074 0)
(0.998989 0.000111693 0)
(0.999091 -0.00111452 0)
(0.99901 0.00021752 0)
(0.999043 -0.00119691 0)
(0.998954 0.000394004 0)
(0.998974 -0.00127226 0)
(0.998883 0.000573867 0)
(0.998896 -0.00134111 0)
(0.998804 0.000759073 0)
(0.998813 -0.00136184 0)
(0.998719 0.000952777 0)
(0.998725 -0.00123758 0)
(0.998633 0.00121228 0)
(0.998642 -0.000893251 0)
(0.998558 0.00168103 0)
(0.998581 -0.00023948 0)
(0.998535 0.00243732 0)
(0.998626 0.000806715 0)
(0.998708 0.00351227 0)
(0.998971 0.00183836 0)
(0.999278 0.00413294 0)
(0.999805 0.00131989 0)
(1.00073 0.00210821 0)
(1.00408 -0.000457044 0)
(1.00001 -0.00146803 0)
(0.999129 -0.000252297 0)
(0.998755 -0.000855201 0)
(0.998694 0.000480322 0)
(0.998852 -0.000872099 0)
(0.998989 0.000352947 0)
(0.999098 -0.00114314 0)
(0.999123 0.000229766 0)
(0.999127 -0.00119 0)
(0.999083 0.000241451 0)
(0.99907 -0.00112547 0)
(0.999018 0.000291868 0)
(0.999 -0.00103057 0)
(0.998946 0.000362803 0)
(0.998926 -0.000923879 0)
(0.998869 0.000458502 0)
(0.998846 -0.000774599 0)
(0.998787 0.000619564 0)
(0.998774 -0.000485932 0)
(0.998739 0.000956685 0)
(0.998739 2.98347e-05 0)
(0.998739 0.00157143 0)
(0.998781 0.000875286 0)
(0.998841 0.0025386 0)
(0.998953 0.00202272 0)
(0.999107 0.0036242 0)
(0.999396 0.00302584 0)
(1.0001 0.00442339 0)
(1.00182 0.00447084 0)
(1.00623 0.0076876 0)
(1.00002 -0.000551699 0)
(0.99923 -0.00133932 0)
(0.99888 -6.60018e-06 0)
(0.998784 -0.000574102 0)
(0.998921 0.000457478 0)
(0.99905 -0.000846759 0)
(0.999168 0.000286911 0)
(0.999194 -0.00106776 0)
(0.999204 0.000226853 0)
(0.999163 -0.00111562 0)
(0.999153 0.000282297 0)
(0.999102 -0.00105475 0)
(0.999085 0.000366944 0)
(0.99903 -0.000957971 0)
(0.999011 0.000438913 0)
(0.998958 -0.000835566 0)
(0.998941 0.00054227 0)
(0.998906 -0.000623026 0)
(0.9989 0.000812928 0)
(0.998888 -0.000217976 0)
(0.998905 0.00129958 0)
(0.998933 0.000469399 0)
(0.999002 0.00205324 0)
(0.9991 0.00143073 0)
(0.999245 0.00314231 0)
(0.99944 0.00293744 0)
(0.999756 0.00504392 0)
(1.00049 0.00527378 0)
(1.00224 0.00680958 0)
(1.00672 0.00522252 0)
(1.00002 -0.00113908 0)
(0.999338 -0.000223958 0)
(0.999006 -0.00114349 0)
(0.998898 0.000574361 0)
(0.998993 -0.00101195 0)
(0.999125 0.000733713 0)
(0.999238 -0.00143741 0)
(0.999272 0.000625113 0)
(0.999285 -0.001685 0)
(0.999249 0.000686956 0)
(0.999241 -0.00167264 0)
(0.999191 0.000807648 0)
(0.999175 -0.0015497 0)
(0.999121 0.000902797 0)
(0.999106 -0.00135372 0)
(0.999054 0.00101386 0)
(0.999046 -0.00108 0)
(0.999015 0.00118341 0)
(0.999023 -0.000724392 0)
(0.999033 0.0014638 0)
(0.999075 -0.000189748 0)
(0.999127 0.00205852 0)
(0.99922 0.000648373 0)
(0.999365 0.00293799 0)
(0.999613 0.00172787 0)
(0.999972 0.00428368 0)
(1.00043 0.00400368 0)
(1.00098 0.0082161 0)
(1.00189 0.00962499 0)
(1.00518 0.013743 0)
(0.999949 -0.00061869 0)
(0.999427 -0.00104387 0)
(0.999036 -0.000382608 0)
(0.998985 -0.000336804 0)
(0.999024 1.16937e-06 0)
(0.999175 -0.000288694 0)
(0.999251 -0.000257445 0)
(0.999329 -0.000547873 0)
(0.999321 -0.000465492 0)
(0.999327 -0.000555225 0)
(0.999289 -0.000418236 0)
(0.999279 -0.000447525 0)
(0.999226 -0.000306393 0)
(0.999218 -0.000331281 0)
(0.999164 -0.000150453 0)
(0.999163 -0.000171033 0)
(0.999115 0.000105135 0)
(0.999134 9.11412e-05 0)
(0.999111 0.000452451 0)
(0.999171 0.0004918 0)
(0.999219 0.000946524 0)
(0.999322 0.00111771 0)
(0.999431 0.00176526 0)
(0.999596 0.00218805 0)
(0.999879 0.0029721 0)
(1.00043 0.00330194 0)
(1.0015 0.00383692 0)
(1.00299 0.00390434 0)
(1.0048 0.00422507 0)
(1.0045 0.00365189 0)
(0.999864 -0.000523522 0)
(0.999688 -0.000898904 0)
(0.999103 -0.000513464 0)
(0.999252 -0.000269371 0)
(0.999026 -0.000112076 0)
(0.999388 -0.000237857 0)
(0.99924 -0.00029791 0)
(0.999527 -0.000453148 0)
(0.99933 -0.000415683 0)
(0.999531 -0.000507396 0)
(0.999314 -0.000321888 0)
(0.999475 -0.000452016 0)
(0.999261 -0.000161649 0)
(0.999407 -0.000344272 0)
(0.999212 2.0757e-05 0)
(0.999359 -0.000181016 0)
(0.999188 0.000238782 0)
(0.999343 8.19287e-05 0)
(0.999217 0.000547112 0)
(0.999406 0.000546462 0)
(0.999355 0.00102321 0)
(0.999613 0.00109104 0)
(0.999679 0.00161354 0)
(1.00001 0.0017705 0)
(1.00013 0.00239167 0)
(1.00051 0.00275405 0)
(1.00075 0.00375195 0)
(1.00124 0.00437843 0)
(1.00168 0.00545384 0)
(1.00473 0.00596112 0)
(0.999934 -0.000879936 0)
(0.999588 -0.000378319 0)
(0.99924 -0.000943808 0)
(0.99919 0.000142756 0)
(0.999163 -0.000597443 0)
(0.999304 0.000257271 0)
(0.999356 -0.000791401 0)
(0.999465 5.71494e-06 0)
(0.999449 -0.000978806 0)
(0.999496 -5.90914e-05 0)
(0.999436 -0.000911041 0)
(0.999464 3.49251e-05 0)
(0.999386 -0.000732452 0)
(0.999411 0.000198435 0)
(0.999338 -0.000509434 0)
(0.99937 0.00041651 0)
(0.999319 -0.000228914 0)