/*--------------------------------*- C++ -*----------------------------------*\
| =========                 |                                                 |
| \\      /  F ield         | OpenFOAM: The Open Source CFD Toolbox           |
|  \\    /   O peration     | Version:  v2006                                 |
|   \\  /    A nd           | Website:  www.openfoam.com                      |
|    \\/     M anipulation  |                                                 |
\*---------------------------------------------------------------------------*/
FoamFile
{
    version     2.0;
    format      ascii;
    class       volScalarField;
    location    "1.8";
    object      p;
}
// * * * * * * * * * * * * * * * * * * * * * * * * * * * * * * * * * * * * * //

dimensions      [0 2 -2 0 0 0 0];


internalField   nonuniform List<scalar> 
26400
(
1.42255e-08
0.0022103
0.00207283
0.0022891
0.00171483
0.00199979
0.00162888
0.00195148
0.00165343
0.00196484
0.00171503
0.00202113
0.00180641
0.00210885
0.00193409
0.00224478
0.00211708
0.00245655
0.00239628
0.00279404
0.00282979
0.00332486
0.00350336
0.00415753
0.00455888
0.0054869
0.00629369
0.00786261
0.00960649
0.0122404
3.5013e-07
0.00221036
0.00207328
0.00228915
0.0017155
0.00199979
0.00162966
0.00195143
0.00165433
0.00196472
0.00171609
0.00202091
0.00180765
0.00210844
0.00193558
0.00224407
0.00211891
0.00245532
0.00239862
0.00279181
0.00283289
0.00332036
0.00350789
0.00414685
0.00456729
0.00545378
0.0063133
0.00771941
0.00959535
0.0115531
1.33752e-06
0.00221064
0.00207419
0.00228931
0.00171676
0.00199973
0.00163116
0.00195123
0.00165609
0.00196437
0.00171814
0.00202033
0.00181006
0.00210751
0.00193842
0.00224264
0.00212228
0.0024531
0.00240262
0.00278834
0.00283756
0.00331466
0.00351321
0.00413699
0.00457381
0.00543524
0.00630919
0.00764083
0.00947925
0.0108938
3.4735e-06
0.00221148
0.00207543
0.0022898
0.00171839
0.0019998
0.00163306
0.00195109
0.00165833
0.00196403
0.00172071
0.00201968
0.00181301
0.0021064
0.00194182
0.00224084
0.00212621
0.00245026
0.0024072
0.00278382
0.00284285
0.00330737
0.00351904
0.00412432
0.00457942
0.00540607
0.00630971
0.00751805
0.0092537
0.010341
7.24823e-06
0.00221278
0.00207701
0.0022905
0.00172033
0.0019999
0.00163528
0.00195089
0.00166088
0.00196353
0.00172361
0.00201875
0.00181627
0.00210484
0.00194553
0.00223839
0.00213044
0.0024465
0.00241208
0.00277804
0.00284832
0.00329844
0.00352464
0.00410946
0.00458235
0.0053777
0.00627776
0.00742738
0.00890542
0.00989283
1.28342e-05
0.00221416
0.00207889
0.0022911
0.00172252
0.00199975
0.00163768
0.00195035
0.00166363
0.0019626
0.00172671
0.00201728
0.00181977
0.0021026
0.00194951
0.00223508
0.002135
0.00244168
0.00241729
0.00277106
0.00285389
0.00328841
0.00352974
0.00409642
0.00458118
0.00536583
0.00621141
0.00735117
0.00852324
0.00934168
2.00705e-05
0.00221537
0.00208103
0.00229138
0.00172489
0.00199914
0.00164021
0.00194932
0.00166653
0.00196112
0.00173002
0.00201517
0.00182356
0.00209959
0.00195392
0.00223084
0.00214013
0.00243572
0.00242314
0.00276273
0.00285992
0.00327658
0.00353498
0.00408002
0.00457975
0.00532259
0.00618539
0.00718065
0.00836357
0.0089293
2.86212e-05
0.00221628
0.0020834
0.00229127
0.00172746
0.00199803
0.00164289
0.00194775
0.00166965
0.00195908
0.00173364
0.00201245
0.00182779
0.00209588
0.00195891
0.00222573
0.00214593
0.0024287
0.00242966
0.00275318
0.00286633
0.00326268
0.00353949
0.00406235
0.00457712
0.00528685
0.00613146
0.00701715
0.00804182
0.00848557
3.81466e-05
0.0022169
0.00208601
0.0022908
0.0017303
0.00199643
0.00164581
0.00194568
0.00167311
0.00195651
0.00173773
0.00200913
0.00183259
0.00209144
0.00196456
0.00221976
0.0021524
0.00242075
0.00243661
0.00274295
0.00287275
0.0032504
0.00354126
0.00404736
0.00455611
0.00528467
0.00601045
0.00691755
0.00740058
0.00799579
4.8402e-05
0.0022173
0.0020889
0.00229004
0.00173349
0.0019944
0.00164906
0.00194312
0.00167704
0.00195337
0.0017424
0.00200513
0.00183809
0.00208618
0.00197101
0.00221278
0.00215968
0.00241162
0.00244418
0.0027307
0.00287966
0.00323504
0.00354343
0.0040266
0.004547
0.00524176
0.00593915
0.00678731
0.00708212
0.00745051
5.92593e-05
0.00221754
0.00209212
0.00228905
0.00173714
0.00199194
0.00165274
0.00194003
0.0016815
0.00194964
0.00174773
0.00200041
0.00184434
0.00208005
0.00197824
0.00220483
0.00216756
0.00240155
0.002452
0.00271809
0.00288586
0.0032193
0.00354435
0.00400276
0.00453607
0.00517162
0.00590731
0.006622
0.00716563
0.00682954
7.06856e-05
0.00221761
0.0020957
0.00228785
0.00174134
0.00198904
0.00165692
0.00193635
0.00168659
0.00194521
0.0017538
0.00199488
0.0018514
0.002073
0.00198624
0.00219592
0.00217595
0.00239056
0.00245988
0.00270514
0.00289063
0.00320388
0.00354216
0.00397869
0.00451569
0.00511634
0.00583966
0.0064489
0.00700707
0.00609004
8.27119e-05
0.00221748
0.00209968
0.00228643
0.00174616
0.00198566
0.00166165
0.00193203
0.00169236
0.00194002
0.00176065
0.0019885
0.00185925
0.00206504
0.00199489
0.00218618
0.0021846
0.00237882
0.00246729
0.0026922
0.00289339
0.00318901
0.00353647
0.00395747
0.00448296
0.00507237
0.00573033
0.00626714
0.00654698
0.00567476
9.54127e-05
0.00221704
0.0021041
0.00228477
0.00175171
0.00198174
0.001667
0.00192698
0.00169887
0.00193403
0.0017683
0.00198126
0.00186783
0.0020563
0.00200396
0.00217595
0.00219314
0.00236756
0.00247332
0.00268014
0.00289309
0.00317507
0.00352169
0.00394289
0.0044393
0.00502308
0.00560918
0.00607809
0.00586198
0.00508841
0.000108896
0.00221618
0.00210897
0.00228282
0.00175809
0.00197722
0.00167303
0.00192111
0.00170617
0.00192715
0.00177679
0.00197312
0.00187711
0.00204677
0.00201337
0.00216515
0.00220147
0.00235637
0.00247796
0.00266846
0.00289104
0.00316
0.00350951
0.0039063
0.00440345
0.00493707
0.00549483
0.00590838
0.00593924
0.00468572
0.0001233
0.00221471
0.00211435
0.00228053
0.00176539
0.00197202
0.0016798
0.00191435
0.00171429
0.00191934
0.00178608
0.00196412
0.00188692
0.00203666
0.00202272
0.00215428
0.00220885
0.00234592
0.00248045
0.00265793
0.00288614
0.00314469
0.00349668
0.00386717
0.00436147
0.00483859
0.00536556
0.00569601
0.00576917
0.00395108
0.000138782
0.00221243
0.00212026
0.00227785
0.00177372
0.00196611
0.00168732
0.00190666
0.00172317
0.00191069
0.001796
0.00195454
0.00189687
0.00202674
0.00203129
0.00214486
0.00221395
0.00233765
0.00247906
0.00265031
0.00287487
0.00313335
0.00346392
0.00384387
0.00429081
0.00475784
0.00518981
0.00543014
0.00524896
0.00370505
0.000155548
0.00220909
0.00212673
0.00227473
0.00178318
0.00195944
0.00169562
0.00189802
0.00173277
0.00190124
0.00180644
0.00194455
0.0019066
0.0020173
0.00203876
0.00213695
0.00221668
0.00233126
0.00247488
0.00264374
0.00286126
0.0031242
0.00342684
0.00381175
0.00421155
0.00466695
0.00500812
0.00512209
0.00438864
0.00320006
0.000173822
0.0022044
0.00213378
0.0022711
0.00179386
0.00195196
0.00170469
0.00188839
0.001743
0.00189099
0.00181725
0.00193429
0.00191576
0.00200768
0.0020448
0.00212989
0.00221764
0.00232462
0.00247071
0.00263322
0.00285072
0.0030973
0.00340568
0.00375258
0.00414009
0.00452588
0.00484477
0.00496508
0.00463251
0.00285503
0.000193792
0.00219809
0.00214138
0.00226701
0.00180577
0.00194379
0.00171436
0.00187807
0.00175348
0.00188063
0.00182761
0.00192662
0.00192406
0.00200086
0.00204873
0.00212475
0.0022163
0.00231893
0.00246446
0.00262246
0.00284059
0.00307133
0.00338045
0.00368367
0.00405657
0.00436917
0.00465821
0.00472745
0.00450042
0.00202446
0.000215923
0.00218971
0.00214961
0.00226228
0.00181911
0.00193473
0.00172474
0.00186674
0.00176436
0.00186945
0.00183752
0.00191403
0.00193198
0.00199376
0.0020512
0.00212041
0.00221266
0.0023143
0.00245353
0.00261259
0.00281817
0.0030542
0.00333236
0.0036316
0.00394909
0.00422751
0.00440213
0.00436382
0.00393009
0.00211144
0.000240209
0.00217901
0.00215829
0.00225715
0.00183367
0.00192534
0.00173521
0.00185551
0.00177455
0.00186062
0.00184561
0.00191037
0.00193482
0.00199305
0.0020473
0.00212342
0.00220209
0.00231918
0.00243396
0.00261622
0.00277845
0.00304077
0.00325686
0.00357746
0.00382442
0.00409123
0.00413216
0.00391022
0.00285934
0.00175719
0.000267356
0.00216542
0.00216749
0.00225144
0.00184965
0.00191539
0.00174592
0.00184368
0.0017843
0.0018512
0.00185399
0.00190333
0.00193897
0.00198746
0.00204988
0.00211487
0.00220514
0.0023025
0.00243852
0.00258285
0.00277831
0.00297914
0.00323413
0.00347108
0.00371393
0.00386085
0.00392398
0.00380133
0.00345883
0.0014911
0.000297585
0.00214859
0.00217704
0.00224523
0.00186694
0.00190511
0.00175654
0.00183121
0.00179261
0.001841
0.00186041
0.00189766
0.00194166
0.00198249
0.00205033
0.00210799
0.00220216
0.00228949
0.00242984
0.00256651
0.00275778
0.00294345
0.00318152
0.0033827
0.00358296
0.00366937
0.00365705
0.00346018
0.00309829
0.00122441
0.000330981
0.0021283
0.00218659
0.00223898
0.00188501
0.00189607
0.00176616
0.00182307
0.00179715
0.00184046
0.00185928
0.00190283
0.00193476
0.00199143
0.00203717
0.00211981
0.00218041
0.00230412
0.0023846
0.00257218
0.00269129
0.00293194
0.00306774
0.00331638
0.00342341
0.00353459
0.00333339
0.00285954
0.00163379
0.00093859
0.000368235
0.002104
0.00219609
0.00223247
0.00190394
0.00188718
0.00177565
0.00181305
0.00180187
0.00183445
0.00186213
0.00189722
0.00193942
0.00198115
0.00204856
0.00210052
0.00219745
0.00227218
0.00240667
0.00251481
0.00268827
0.00284502
0.00303817
0.00317713
0.00328105
0.00326933
0.00315971
0.00292601
0.00254056
0.000681299
0.00041005
0.00207522
0.00220536
0.00222566
0.00192349
0.00187721
0.001784
0.00180476
0.00180438
0.00183209
0.00186233
0.00189589
0.00193759
0.00197367
0.00204516
0.00208896
0.0021922
0.00224845
0.00240005
0.00248075
0.00268179
0.00277745
0.00298654
0.00304511
0.00312905
0.00300821
0.00283984
0.00255473
0.00228898
0.00049635
0.00045538
0.00204312
0.00221327
0.00222091
0.00194243
0.00187419
0.00178682
0.00180309
0.00179767
0.00184095
0.00185004
0.00191391
0.00191846
0.00200567
0.00201016
0.00212459
0.00214163
0.00228658
0.00232953
0.00250307
0.0025793
0.00276206
0.0028554
0.00297755
0.00295028
0.00281033
0.00235321
0.00162364
0.00063578
0.00100595
0.000505515
0.00200596
0.00222053
0.00221522
0.00196459
0.00186915
0.00179372
0.0017954
0.00180017
0.0018354
0.00185402
0.00190631
0.00192168
0.00199081
0.00201067
0.0021086
0.00213813
0.00226492
0.00231471
0.00247085
0.00254546
0.00270632
0.00277339
0.00286894
0.00281504
0.00264757
0.00212142
0.00128864
0.00021573
0.000657182
0.000561869
0.00196141
0.00222523
0.00220745
0.00198351
0.00186723
0.00179867
0.00178852
0.00180329
0.00182805
0.00186238
0.00189486
0.00193535
0.00197306
0.00203142
0.00207969
0.00215465
0.00222337
0.00231871
0.00241175
0.00251873
0.00261364
0.00269553
0.00271518
0.00268828
0.00252565
0.00225948
0.00182891
0.00123485
-0.000903169
0.000621337
0.00192602
0.00222257
0.00221484
0.00199886
0.00186999
0.0017997
0.00178398
0.0018024
0.0018237
0.00186471
0.00188879
0.0019388
0.00196323
0.00203505
0.00206194
0.00215188
0.00219479
0.00230059
0.00236288
0.00246845
0.00252904
0.0025946
0.00259533
0.00255201
0.00243273
0.00223346
0.00173878
0.0006413
-0.00310637
0.000688742
0.00187211
0.002222
0.00218733
0.00202684
0.00187524
0.00180607
0.00178072
0.00180204
0.00182198
0.00186044
0.0018899
0.00192961
0.00196678
0.00201977
0.00207006
0.00212977
0.00219363
0.00226198
0.00233368
0.00240239
0.00245424
0.00249969
0.0024859
0.00240202
0.00219032
0.0018133
0.00126161
0.000463109
-0.00214463
0.000754283
0.00184074
0.00220205
0.00221603
0.00202253
0.00189362
0.00179485
0.00179543
0.00178136
0.00184017
0.00183521
0.0019136
0.00190091
0.00199143
0.00198207
0.0020814
0.00208609
0.00218182
0.0022042
0.00228783
0.00231784
0.00237462
0.00239558
0.00238867
0.00224508
0.00200787
0.0012961
9.82708e-05
-0.00155467
-0.0022937
0.000833496
0.0017904
0.00218898
0.00217531
0.00206271
0.00189281
0.00181714
0.00177987
0.00179883
0.00181934
0.00185515
0.00188953
0.00192483
0.00196522
0.00200889
0.00205125
0.00209404
0.00213529
0.00217875
0.00221549
0.00225187
0.00226945
0.00227082
0.00221862
0.00209633
0.00186849
0.0015253
0.00104069
9.86342e-05
-0.00314464
0.000904639
0.00176346
0.00215653
0.00219449
0.00206222
0.00191066
0.00181957
0.00178226
0.00179251
0.00181479
0.0018489
0.00188296
0.00191721
0.00195341
0.00199406
0.00203404
0.00207291
0.00211339
0.00214312
0.00216081
0.00217434
0.00215521
0.00212643
0.00204994
0.00195127
0.00178099
0.00150733
0.000790024
-0.000899988
-0.00527911
0.000984109
0.00173221
0.00211967
0.00217792
0.00207833
0.00192309
0.00183164
0.00178568
0.00179701
0.00181163
0.0018469
0.00187707
0.00191165
0.00194886
0.00198849
0.00202544
0.00205634
0.00207541
0.00209463
0.00209311
0.00208497
0.00204276
0.00198192
0.00187317
0.00173527
0.00152989
0.0012193
0.000479022
-0.00125257
-0.00568294
0.00107232
0.0017127
0.00207886
0.00214793
0.00209006
0.00193211
0.00184456
0.00179015
0.00179789
0.00180618
0.00183959
0.00186794
0.00190234
0.00193691
0.00197376
0.00200818
0.00203117
0.00204497
0.00205109
0.00202623
0.00199479
0.00192796
0.00184348
0.00168772
0.00144789
0.00107776
0.000620648
5.55626e-05
-0.000857897
-0.0041106
0.00111274
0.00173207
0.00203397
0.00216812
0.00205572
0.00198195
0.00183868
0.00182777
0.00177788
0.00182044
0.00181459
0.00186927
0.00188006
0.00192598
0.00194914
0.0019816
0.00199845
0.00200602
0.00200301
0.00196711
0.00189352
0.00181019
0.00167802
0.0015326
0.0012311
0.000694565
-0.000390517
-0.00188795
-0.0037776
-0.00350535
0.00123894
0.00168478
0.00200151
0.00210399
0.0020844
0.00196656
0.00187904
0.00182123
0.0017985
0.00180096
0.00182026
0.00185109
0.00187962
0.00190889
0.00193907
0.00195281
0.00196705
0.00195716
0.00194188
0.00188614
0.00180584
0.00166894
0.00148266
0.00125997
0.00103076
0.0007518
0.000417912
1.83444e-05
-0.000505083
-0.00340149
0.00125719
0.0017318
0.00196063
0.00212274
0.00204994
0.00201003
0.00186724
0.00184657
0.00178434
0.00180534
0.00180328
0.00183873
0.00185883
0.0018856
0.00191382
0.00192827
0.00193497
0.00192103
0.00187412
0.00182288
0.00172458
0.00161329
0.00144719
0.001248
0.000851054
0.00011043
-0.00114965
-0.00278413
-0.00470619
-0.00410239
0.00138036
0.00168658
0.00193887
0.00205959
0.00207016
0.00199388
0.00191685
0.00185131
0.00180889
0.00179061
0.00180037
0.00181841
0.00184275
0.00186263
0.00188318
0.00188789
0.00188286
0.00185731
0.00181882
0.00175334
0.00165891
0.00152649
0.00134285
0.00108642
0.000770569
0.0004308
9.69776e-05
-0.000350102
-0.00158149
-0.00562472
0.00144964
0.00168838
0.00192052
0.00203653
0.00206361
0.00199622
0.00192914
0.00185004
0.00181207
0.00178662
0.00178674
0.00180044
0.00182008
0.00184569
0.00185816
0.00185346
0.00184486
0.00180733
0.00177012
0.00168793
0.00158751
0.00143179
0.00124961
0.00101685
0.00075112
0.000372781
-0.000227012
-0.00137219
-0.00361138
-0.00863826
0.00147566
0.00173199
0.00190597
0.00200929
0.0020372
0.0020024
0.00193996
0.00187366
0.00183035
0.00180107
0.0017819
0.00177746
0.00179028
0.00179759
0.00181059
0.00181045
0.0017988
0.00176391
0.00171411
0.00162756
0.00151
0.00134222
0.00113594
0.000877085
0.000562756
0.000124658
-0.000566573
-0.00179238
-0.00412997
-0.00915492
0.00161684
0.00169097
0.00189044
0.00197977
0.00202304
0.00198277
0.00193714
0.00187429
0.0018282
0.00179539
0.0017728
0.00177222
0.00176997
0.00177194
0.00178348
0.00177058
0.00175993
0.00171202
0.00165851
0.00156171
0.0014414
0.00125572
0.00100779
0.00064607
0.000192835
-0.000340932
-0.000915814
-0.00169623
-0.00323982
-0.00787269
0.00155521
0.0018324
0.00186605
0.00199466
0.00196576
0.0020098
0.00190643
0.0019032
0.00181384
0.00181087
0.0017515
0.00174565
0.0017289
0.00173166
0.00173965
0.00173514
0.00172505
0.00167967
0.00159499
0.00150992
0.00136068
0.00119473
0.000911153
0.000523356
-0.000203203
-0.00131508
-0.00285188
-0.00470973
-0.00678258
-0.00585623
0.00172451
0.00177366
0.00187368
0.00193364
0.00196111
0.00196486
0.00193924
0.00188969
0.00185068
0.00181074
0.00175544
0.00171053
0.00169021
0.00168012
0.00168426
0.00167593
0.00165884
0.00161026
0.0015417
0.00144095
0.00130206
0.00110597
0.000837259
0.00048191
5.90385e-05
-0.000417729
-0.00100166
-0.00195099
-0.00401962
-0.00925666
0.00173493
0.00179329
0.00189399
0.00193995
0.00196038
0.00194525
0.00192057
0.0018758
0.00182853
0.00178567
0.0017395
0.00171213
0.00167613
0.00164773
0.00163973
0.00161565
0.00160251
0.00154978
0.00148893
0.00137912
0.00124606
0.00105198
0.000820453
0.000503893
8.83537e-05
-0.000583452
-0.00164857
-0.00345258
-0.00651977
-0.0123827
0.0017623
0.00187291
0.00191016
0.00192829
0.00193161
0.00191532
0.00189939
0.00186752
0.00183637
0.00178282
0.00172646
0.00167191
0.00162377
0.00160279
0.00158343
0.00157341
0.0015436
0.00149978
0.00142454
0.00132446
0.00118339
0.00100354
0.000763358
0.000442395
-2.7659e-05
-0.000723615
-0.00180192
-0.00355014
-0.00666458
-0.0126848
0.0018537
0.00188419
0.00190911
0.00191131
0.00190281
0.00189113
0.00187238
0.00185074
0.00182267
0.00177885
0.00170705
0.00163605
0.00159017
0.00156165
0.00154627
0.00152552
0.00149272
0.00143905
0.00136271
0.00125808
0.00111803
0.000932734
0.000685866
0.000345614
-0.00014082
-0.000862168
-0.00198729
-0.00386416
-0.00721656
-0.0135571
0.00186748
0.00192007
0.00194198
0.00193075
0.00190186
0.00187147
0.00184258
0.00181385
0.00177665
0.00173188
0.0016775
0.00162325
0.00157467
0.00153785
0.00150776
0.00147766
0.00143583
0.00137636
0.00129485
0.0011866
0.00104245
0.000850488
0.000591674
0.000235361
-0.000273712
-0.00103619
-0.00224484
-0.00425722
-0.00777236
-0.0142606
0.0019243
0.00196445
0.00196242
0.00193105
0.00188648
0.00184237
0.00180391
0.0017702
0.00173503
0.00169697
0.00165201
0.00160301
0.00155334
0.00150842
0.00146746
0.00142683
0.00137634
0.00131007
0.00122246
0.00110855
0.000957642
0.000756653
0.000484839
0.000109264
-0.000431821
-0.00124748
-0.00253238
-0.00463769
-0.00824731
-0.0147855
0.00196723
0.00199525
0.00197842
0.00193332
0.00187505
0.00181933
0.00177295
0.00173552
0.00169992
0.00166266
0.0016205
0.00157383
0.00152396
0.00147427
0.00142526
0.00137477
0.00131539
0.00124116
0.00114622
0.00102466
0.000865191
0.000652998
0.000365566
-3.35316e-05
-0.000609028
-0.00147125
-0.00281222
-0.0049783
-0.00863274
-0.0151884
0.00200942
0.00202663
0.00199936
0.0019391
0.00186606
0.00179783
0.00174219
0.00169889
0.00166042
0.00162336
0.00158324
0.00153881
0.00148908
0.00143622
0.00138071
0.00132149
0.00125286
0.00116963
0.00106593
0.000935041
0.000765025
0.000539626
0.000234449
-0.000188559
-0.000794442
-0.00169251
-0.00307256
-0.00527337
-0.00895569
-0.0155322
0.00205234
0.00206048
0.00201637
0.00194122
0.00185524
0.00177553
0.00171086
0.00166087
0.00161983
0.00158256
0.00154385
0.00150041
0.0014504
0.00139439
0.00133313
0.00126576
0.00118802
0.00109504
0.000981419
0.000839659
0.000657604
0.000417766
9.49605e-05
-0.000349629
-0.000980202
-0.00190486
-0.0033095
-0.00552899
-0.00922249
-0.0158056
0.00209226
0.00208929
0.00203359
0.0019445
0.00184505
0.00175385
0.00168019
0.0016243
0.00158012
0.00154133
0.00150235
0.00145894
0.00140789
0.00134876
0.00128196
0.00120685
0.00112002
0.00101701
0.000892592
0.000739038
0.000544103
0.000289942
-4.91386e-05
-0.00051202
-0.00116216
-0.00210602
-0.00352597
-0.00575723
-0.0094605
-0.016055
0.00212992
0.00211785
0.00205017
0.00194795
0.00183555
0.00173255
0.00164947
0.0015869
0.00153897
0.00149828
0.00145847
0.00141414
0.00136148
0.00129902
0.00122691
0.0011444
0.00104866
0.000935463
0.000799728
0.000633938
0.000426154
0.000158435
-0.000194993
-0.00067311
-0.0013388
-0.00229624
-0.0037273
-0.00596732
-0.00967715
-0.0162798
0.002165
0.00214573
0.00206607
0.00195169
0.00182689
0.00171147
0.0016182
0.00154834
0.00149635
0.00145334
0.0014122
0.00136633
0.00131158
0.00124549
0.00116805
0.00107826
0.000973797
0.000850476
0.000703596
0.000525805
0.000305724
2.55147e-05
-0.000340456
-0.000831248
-0.00150863
-0.0024763
-0.0039163
-0.00616421
-0.00987981
-0.0164837
0.00219428
0.00216933
0.00208373
0.00195844
0.00181946
0.00169068
0.00158647
0.00150927
0.00145246
0.00140686
0.00136358
0.00131584
0.00125834
0.00118851
0.00110546
0.00100857
0.000895447
0.000762492
0.000604875
0.000415835
0.000184176
-0.000107268
-0.00048417
-0.00098518
-0.00167148
-0.00264676
-0.00409359
-0.00634802
-0.0100717
-0.0166865
0.00222223
0.00219172
0.00209922
0.00196332
0.00181148
0.00167028
0.00155544
0.00147029
0.00140801
0.00135889
0.00131286
0.00126261
0.00120203
0.00112812
0.00103944
0.000935496
0.000814041
0.000671905
0.000504297
0.000304811
6.25993e-05
-0.000238966
-0.000625325
-0.00113432
-0.00182745
-0.00280835
-0.00425964
-0.00651769
-0.0102462
-0.0168694
0.00225086
0.00221475
0.00211044
0.00196355
0.00180181
0.00165021
0.00152544
0.0014316
0.00136316
0.00130949
0.00126022
0.00120675
0.00114286
0.00106455
0.000970365
0.000859429
0.00073011
0.000579255
0.000402519
0.000193444
-5.8224e-05
-0.00036883
-0.000762846
-0.00127827
-0.00197659
-0.00296163
-0.00441536
-0.00667328
-0.0103965
-0.0170098
0.00227519
0.00223367
0.0021217
0.00196486
0.00179241
0.00163023
0.00149544
0.00139292
0.00131762
0.00125892
0.0012057
0.00114864
0.00108098
0.000998216
0.000898517
0.000780938
0.000644106
0.000485199
0.000300075
8.24346e-05
-0.000177695
-0.00049584
-0.000896102
-0.00141658
-0.00211884
-0.00310656
-0.00456138
-0.0068189
-0.010542
-0.0171606
0.00229552
0.00224975
0.00213254
0.00196705
0.00178336
0.00160988
0.00146483
0.00135364
0.00127132
0.00120726
0.00114957
0.00108852
0.00101672
0.000929451
0.00082433
0.000700469
0.000556579
0.000390287
0.000197554
-2.76811e-05
-0.000294957
-0.000619255
-0.00102459
-0.00154899
-0.0022542
-0.00324383
-0.00469971
-0.00695774
-0.0106817
-0.0173013
0.00231493
0.00226563
0.00214069
0.00196632
0.00177295
0.00158904
0.00143393
0.00131391
0.00122448
0.00115469
0.00109224
0.00102677
0.000950625
0.000858683
0.000748341
0.000618507
0.000468135
0.000295085
9.562e-05
-0.000136174
-0.000409301
-0.000738615
-0.00114796
-0.0016754
-0.00238275
-0.00337387
-0.00483076
-0.00708949
-0.0108135
-0.0174319
0.00233118
0.00227825
0.00214745
0.00196493
0.00176196
0.00156784
0.00140285
0.00127406
0.00117733
0.00110157
0.001034
0.000963839
0.000883101
0.000786454
0.000671034
0.000535639
0.000379315
0.0002002
-5.23138e-06
-0.000242419
-0.000520311
-0.000853629
-0.0012661
-0.00179577
-0.00250452
-0.00349642
-0.00495373
-0.00721279
-0.0109372
-0.0175553
0.00234435
0.00228818
0.00215262
0.00196276
0.00175037
0.00154621
0.00137157
0.0012342
0.00113006
0.00104812
0.000975149
0.000900083
0.00081459
0.000713245
0.000592928
0.000452382
0.00029065
0.000106143
-0.000104337
-0.000345976
-0.000627734
-0.000964207
-0.00137905
-0.00191017
-0.00261953
-0.00361125
-0.00506779
-0.00732594
-0.0110507
-0.0176733
0.00235645
0.0022971
0.00215521
0.00195763
0.00173675
0.00152366
0.00134019
0.00119446
0.0010829
0.000994556
0.000916044
0.000835896
0.000745619
0.000639592
0.00051461
0.000369291
0.000202742
1.35264e-05
-0.000201146
-0.00044645
-0.000731292
-0.00107021
-0.00148672
-0.00201865
-0.00272791
-0.00371862
-0.0051733
-0.00742883
-0.0111504
-0.0177707
0.00236636
0.0023035
0.00215574
0.00195077
0.00172181
0.0015004
0.00130865
0.00115489
0.00103597
0.000941112
0.000856952
0.000771684
0.00067664
0.000566036
0.000436622
0.000286919
0.000116072
-7.70701e-05
-0.000295203
-0.000543489
-0.000830755
-0.0011715
-0.00158909
-0.0021213
-0.00282995
-0.00381917
-0.00527144
-0.0075239
-0.0112428
-0.0178638
0.00237355
0.00230772
0.00215475
0.00194303
0.00170635
0.00147677
0.00127686
0.00111527
0.000989171
0.000887911
0.000798131
0.00070778
0.000608041
0.000493033
0.000359447
0.000205752
3.12221e-05
-0.000165226
-0.000386224
-0.000636905
-0.000926034
-0.00126806
-0.00168626
-0.00221839
-0.00292625
-0.00391408
-0.00536453
-0.00761494
-0.0113315
-0.0179515
0.0023777
0.00230953
0.00215244
0.00193478
0.00169068
0.00145295
0.00124494
0.00107576
0.000942705
0.000835225
0.00073989
0.000644577
0.000540284
0.000421108
0.000283664
0.000126409
-5.12948e-05
-0.000250519
-0.000473885
-0.000726464
-0.001017
-0.0013599
-0.00177841
-0.00231027
-0.00301735
-0.00400405
-0.00545335
-0.0077032
-0.0114212
-0.0180452
0.00237948
0.00230931
0.00214847
0.00192531
0.00167428
0.00142884
0.00121309
0.00103663
0.000896874
0.000783371
0.000682644
0.000582544
0.000473917
0.000350827
0.000209836
4.95081e-05
-0.000130902
-0.000332457
-0.000557772
-0.000811859
-0.00110346
-0.00144694
-0.00186559
-0.00239714
-0.00310359
-0.00408948
-0.00553805
-0.0077875
-0.0115056
-0.01813
0.00238025
0.00230778
0.00214266
0.00191399
0.00165664
0.00140433
0.00118153
0.000998164
0.000852004
0.000732707
0.000626809
0.000522132
0.000409435
0.000282741
0.000138644
-2.43654e-05
-0.00020709
-0.000410624
-0.000637546
-0.000892848
-0.00118525
-0.00152913
-0.00194779
-0.00247902
-0.00318489
-0.00417005
-0.00561782
-0.00786648
-0.0115837
-0.0182073
0.00237903
0.0023044
0.00213548
0.00190177
0.00163853
0.00137982
0.00115045
0.000960639
0.000808437
0.000683642
0.000572857
0.000463876
0.000347436
0.000217498
7.06223e-05
-9.47663e-05
-0.000279513
-0.000484733
-0.000712988
-0.000969255
-0.00126225
-0.00160636
-0.00202491
-0.00255573
-0.00326092
-0.00424515
-0.00569179
-0.00793913
-0.011655
-0.0182782
0.00237622
0.0022997
0.00212738
0.00188905
0.00162033
0.00135562
0.0011201
0.000924309
0.000766489
0.000636581
0.000521251
0.000408304
0.000288436
0.00015556
6.16747e-06
-0.000161349
-0.000347869
-0.00055452
-0.000783865
-0.00104088
-0.00133427
-0.00167844
-0.00209673
-0.00262698
-0.0033313
-0.00431441
-0.00575973
-0.00800571
-0.0117206
-0.0183437
0.00237217
0.00229393
0.00211852
0.00187596
0.00160222
0.00133199
0.00109082
0.00088953
0.000726544
0.000591948
0.000472462
0.0003559
0.000232915
9.73776e-05
-5.42754e-05
-0.00022368
-0.000411738
-0.000619591
-0.000849811
-0.00110737
-0.00140099
-0.00174506
-0.00216295
-0.0026925
-0.00339585
-0.00437781
-0.00582188
-0.00806673
-0.0117809
-0.0184043
0.00236727
0.00228747
0.0021092
0.00186281
0.00158452
0.00130928
0.00106299
0.000856716
0.000689054
0.000550225
0.000426994
0.00030718
0.000181397
4.34783e-05
-0.000110177
-0.000281234
-0.000470611
-0.000679463
-0.000910374
-0.00116833
-0.00146204
-0.00180592
-0.00222334
-0.00275218
-0.00345462
-0.0044355
-0.00587846
-0.00812233
-0.0118359
-0.0184597
0.00236187
0.00228066
0.00209984
0.00184999
0.00156762
0.00128792
0.00103705
0.000826341
0.000654523
0.000511942
0.000385396
0.0002627
0.000134441
-5.58182e-06
-0.000160995
-0.000333485
-0.000523986
-0.000733667
-0.000965124
-0.00122335
-0.00151709
-0.00186077
-0.00227777
-0.002806
-0.00350768
-0.00448768
-0.00592969
-0.00817265
-0.0118856
-0.0185095
0.00235648
0.00227402
0.00209092
0.00183799
0.00155202
0.00126839
0.00101351
0.000798938
0.000623559
0.000477763
0.000348365
0.000223179
9.27624e-05
-4.91022e-05
-0.000206052
-0.000379791
-0.000571258
-0.000781643
-0.00101355
-0.001272
-0.00156574
-0.00190924
-0.00232591
-0.00285369
-0.00355482
-0.00453423
-0.00597564
-0.008218
-0.0119304
-0.0185543
0.0023513
0.0022679
0.00208296
0.00182743
0.00153835
0.00125129
0.000992951
0.000775155
0.000596849
0.000448463
0.000316766
0.000189557
5.736e-05
-8.60412e-05
-0.000244286
-0.000419073
-0.000611345
-0.000822301
-0.00105456
-0.00131317
-0.0016069
-0.00195026
-0.00236668
-0.00289414
-0.00359493
-0.00457403
-0.00601522
-0.0082576
-0.0119704
-0.018595
0.00234705
0.0022626
0.00207613
0.00181853
0.0015269
0.00123707
0.000976033
0.00075586
0.000575464
0.000425246
0.000291895
0.000163182
2.96302e-05
-0.000114966
-0.000274216
-0.000449808
-0.000642679
-0.000854039
-0.00108652
-0.00134518
-0.00163884
-0.001982
-0.00239817
-0.00292534
-0.00362586
-0.00460477
-0.00604592
-0.00828844
-0.0120016
-0.0186266
0.00234564
0.00226037
0.00207115
0.00180993
0.00151489
0.00122242
0.000959502
0.000737883
0.000556125
0.000404433
0.000269504
0.000139139
3.97836e-06
-0.000142125
-0.000302708
-0.000479441
-0.00067324
-0.000885329
-0.00111834
-0.00137736
-0.00167117
-0.00201431
-0.00243025
-0.00295699
-0.00365687
-0.00463497
-0.00607525
-0.00831714
-0.0120306
-0.018659
0.0142771
0.0139803
0.0124931
0.0103229
0.00752879
0.00424031
0.000622179
-0.00296381
-0.00579945
-0.00724091
-0.00730546
-0.00654631
-0.00553715
-0.00460435
-0.00387585
-0.00337056
-0.00305388
-0.00287381
-0.00278161
-0.00273949
-0.00272131
-0.00271064
-0.00269834
-0.00268036
-0.0026559
-0.00262601
-0.00259258
-0.00255761
-0.00252287
-0.00248963
-0.00245867
-0.00243037
-0.00240476
-0.00238171
-0.00236102
-0.00234249
-0.00232593
-0.00231123
-0.00229828
-0.00228698
-0.00227725
-0.00226899
-0.00226209
-0.00225644
-0.00225193
-0.00224847
-0.00224596
-0.00224432
-0.00224351
-0.00224348
-0.00224418
-0.0022456
-0.00224771
-0.0022505
-0.00225392
-0.00225798
-0.00226263
-0.00226787
-0.00227367
-0.00228
-0.00228685
-0.00229419
-0.00230201
-0.00231028
-0.00231898
-0.00232811
-0.00233764
-0.00234756
-0.00235785
-0.0023685
-0.0023795
-0.00239084
-0.0024025
-0.00241448
-0.00242676
-0.00243934
-0.00245221
-0.00246536
-0.00247878
-0.00249247
-0.00250641
-0.00252061
-0.00253506
-0.00254974
-0.00256466
-0.00257981
-0.00259518
-0.00261077
-0.00262658
-0.00264259
-0.00265881
-0.00267523
-0.00269185
-0.00270865
-0.00272565
-0.00274283
-0.00276019
-0.00277772
-0.00279542
-0.0028133
-0.00283133
-0.00284953
-0.00286788
-0.00288638
-0.00290504
-0.00292384
-0.00294278
-0.00296187
-0.00298109
-0.00300046
-0.00301996
-0.00303959
-0.00305935
-0.00307924
-0.00309926
-0.00311941
-0.00313969
-0.00316008
-0.00318061
-0.00320125
-0.00322201
-0.0032429
-0.0032639
-0.00328502
-0.00330625
-0.00332759
-0.00334904
-0.00337061
-0.00339227
-0.00341405
-0.00343592
-0.00345789
-0.00347996
-0.00350213
-0.00352438
-0.00354674
-0.00356918
-0.00359171
-0.00361433
-0.00363704
-0.00365983
-0.00368271
-0.00370567
-0.00372873
-0.00375186
-0.00377509
-0.0037984
-0.00382179
-0.00384526
-0.00386882
-0.00389247
-0.00391619
-0.00394
-0.00396388
-0.00398784
-0.00401188
-0.00403599
-0.00406017
-0.00408443
-0.00410875
-0.00413314
-0.00415759
-0.00418211
-0.00420669
-0.00423134
-0.00425605
-0.00428083
-0.00430566
-0.00433057
-0.00435553
-0.00438056
-0.00440565
-0.00443081
-0.00445604
-0.00448133
-0.00450668
-0.0045321
-0.00455758
-0.00458312
-0.00460873
-0.00463439
-0.00466011
-0.00468589
-0.00471173
-0.00473762
-0.00476356
-0.00478956
-0.00481561
-0.00484172