/*--------------------------------*- C++ -*----------------------------------*\
| =========                 |                                                 |
| \\      /  F ield         | OpenFOAM: The Open Source CFD Toolbox           |
|  \\    /   O peration     | Version:  v2006                                 |
|   \\  /    A nd           | Website:  www.openfoam.com                      |
|    \\/     M anipulation  |                                                 |
\*---------------------------------------------------------------------------*/
FoamFile
{
    version     2.0;
    format      ascii;
    class       surfaceScalarField;
    location    "1.8";
    object      phi;
}
// * * * * * * * * * * * * * * * * * * * * * * * * * * * * * * * * * * * * * //

dimensions      [0 3 -1 0 0 0 0];
oriented        oriented;


internalField   nonuniform List<scalar> 
52390
(
1.17004e-06
-3.19185e-07
1.17006e-06
2.7998e-07
1.17314e-06
-2.56091e-07
1.17328e-06
2.18053e-07
1.17679e-06
-2.09073e-07
1.17689e-06
1.68212e-07
1.18031e-06
-1.67369e-07
1.1802e-06
1.29192e-07
1.18341e-06
-1.34656e-07
1.18309e-06
9.86484e-08
1.1861e-06
-1.09644e-07
1.18557e-06
7.48182e-08
1.18841e-06
-8.94928e-08
1.18763e-06
5.62369e-08
1.19034e-06
-7.28048e-08
1.18931e-06
4.18287e-08
1.19191e-06
-5.9121e-08
1.19057e-06
3.0731e-08
1.19314e-06
-4.78979e-08
1.19138e-06
2.22893e-08
1.19398e-06
-3.85856e-08
1.19166e-06
1.59572e-08
1.19438e-06
-3.04907e-08
1.19129e-06
1.12389e-08
1.19421e-06
-2.24941e-08
1.19028e-06
7.4497e-09
1.19285e-06
-1.144e-08
1.1866e-06
4.44199e-09
1.18214e-06
1.86683e-08
2.36708e-08
1.15365e-06
1.22709e-06
-3.22018e-07
1.22766e-06
2.79417e-07
1.23154e-06
-2.59968e-07
1.23223e-06
2.17354e-07
1.23608e-06
-2.1292e-07
1.23652e-06
1.67768e-07
1.23992e-06
-1.70763e-07
1.24019e-06
1.28919e-07
1.24309e-06
-1.37554e-07
1.24331e-06
9.84262e-08
1.24569e-06
-1.12027e-07
1.24594e-06
7.45717e-08
1.24778e-06
-9.13358e-08
1.24814e-06
5.58791e-08
1.24938e-06
-7.40437e-08
1.24998e-06
4.12332e-08
1.2505e-06
-5.96396e-08
1.25148e-06
2.97489e-08
1.2511e-06
-4.75163e-08
1.25266e-06
2.07282e-08
1.25112e-06
-3.70473e-08
1.25349e-06
1.35889e-08
1.25045e-06
-2.74588e-08
1.25385e-06
7.84603e-09
1.24898e-06
-1.7626e-08
1.2534e-06
3.02477e-09
1.24637e-06
-4.40163e-09
1.24968e-06
1.13247e-09
1.23779e-06
3.055e-08
3.89628e-08
1.2225e-06
1.28548e-06
-3.24717e-07
1.28903e-06
2.75867e-07
1.2918e-06
-2.62739e-07
1.29501e-06
2.14145e-07
1.29717e-06
-2.15078e-07
1.30001e-06
1.6493e-07
1.30128e-06
-1.72036e-07
1.30394e-06
1.26258e-07
1.30436e-06
-1.37974e-07
1.30705e-06
9.57413e-08
1.30664e-06
-1.11619e-07
1.30948e-06
7.17331e-08
1.30826e-06
-9.01137e-08
1.31135e-06
5.279e-08
1.3093e-06
-7.19977e-08
1.31271e-06
3.78176e-08
1.30983e-06
-5.67593e-08
1.3136e-06
2.59871e-08
1.3099e-06
-4.38186e-08
1.31395e-06
1.66733e-08
1.30951e-06
-3.26085e-08
1.31369e-06
9.41439e-09
1.30869e-06
-2.24645e-08
1.3126e-06
3.93585e-09
1.30749e-06
-1.25074e-08
1.31031e-06
2.02657e-10
1.30596e-06
-4.98682e-11
1.30353e-06
3.55861e-09
1.30064e-06
3.34408e-08
6.14632e-08
1.27814e-06
1.34585e-06
-3.26464e-07
1.35198e-06
2.69731e-07
1.35318e-06
-2.63935e-07
1.35868e-06
2.08649e-07
1.35888e-06
-2.15281e-07
1.36385e-06
1.59959e-07
1.36297e-06
-1.71153e-07
1.36756e-06
1.21665e-07
1.36577e-06
-1.36183e-07
1.37016e-06
9.13485e-08
1.36763e-06
-1.09083e-07
1.37191e-06
6.74466e-08
1.36879e-06
-8.69885e-08
1.37299e-06
4.85909e-08
1.36942e-06
-6.84285e-08
1.3735e-06
3.37387e-08
1.36963e-06
-5.28902e-08
1.3735e-06
2.21172e-08
1.36948e-06
-3.98011e-08
1.37301e-06
1.31425e-08
1.369e-06
-2.85971e-08
1.37201e-06
6.40573e-09
1.36818e-06
-1.86372e-08
1.37035e-06
1.76873e-09
1.36709e-06
-9.25198e-09
1.36753e-06
-2.30416e-10
1.36579e-06
1.68257e-09
1.36057e-06
8.78333e-09
1.36007e-06
3.39401e-08
8.46706e-08
1.33686e-06
1.4086e-06
-3.26711e-07
1.41612e-06
2.6221e-07
1.4157e-06
-2.6351e-07
1.42241e-06
2.01938e-07
1.42102e-06
-2.13893e-07
1.42704e-06
1.53943e-07
1.42473e-06
-1.68849e-07
1.43007e-06
1.16323e-07
1.42714e-06
-1.33248e-07
1.43194e-06
8.65442e-08
1.42862e-06
-1.05766e-07
1.43298e-06
6.30868e-08
1.42949e-06
-8.34937e-08
1.43344e-06
4.46434e-08
1.42992e-06
-6.49078e-08
1.43346e-06
3.01975e-08
1.43e-06
-4.94366e-08
1.43313e-06
1.89941e-08
1.42979e-06
-3.64659e-08
1.43247e-06
1.04618e-08
1.42928e-06
-2.54027e-08
1.43144e-06
4.24348e-09
1.42845e-06
-1.56446e-08
1.42983e-06
3.91064e-10
1.42735e-06
-6.77889e-09
1.4271e-06
2.23303e-11
1.42555e-06
3.22898e-09
1.42111e-06
1.32222e-08
1.41822e-06
3.68351e-08
1.10612e-07
1.39228e-06
1.47433e-06
-3.25365e-07
1.48192e-06
2.54616e-07
1.48021e-06
-2.61792e-07
1.48693e-06
1.95219e-07
1.48459e-06
-2.11561e-07
1.49055e-06
1.47985e-07
1.48768e-06
-1.65976e-07
1.4928e-06
1.11205e-07
1.48964e-06
-1.30093e-07
1.49407e-06
8.21179e-08
1.49083e-06
-1.02523e-07
1.49471e-06
5.92025e-08
1.49151e-06
-8.02936e-08
1.49495e-06
4.12007e-08
1.49185e-06
-6.18054e-08
1.49492e-06
2.71237e-08
1.49191e-06
-4.64265e-08
1.49466e-06
1.62493e-08
1.49172e-06
-3.35254e-08
1.49413e-06
8.05036e-09
1.49125e-06
-2.25214e-08
1.49323e-06
2.26331e-09
1.49047e-06
-1.28862e-08
1.49175e-06
-8.85884e-10
1.48922e-06
-4.25629e-09
1.48944e-06
-1.97038e-10
1.48652e-06
6.14813e-09
1.48432e-06
1.54307e-08
1.48321e-06
3.79396e-08
6.42303e-08
1.52959e-06
1.54353e-06
-3.2268e-07
1.55035e-06
2.47797e-07
1.54776e-06
-2.59206e-07
1.55376e-06
1.89221e-07
1.55099e-06
-2.08782e-07
1.55633e-06
1.42644e-07
1.55334e-06
-1.62994e-07
1.55791e-06
1.06643e-07
1.55485e-06
-1.27036e-07
1.5588e-06
7.81625e-08
1.55576e-06
-9.94785e-08
1.55929e-06
5.56721e-08
1.5563e-06
-7.73079e-08
1.55953e-06
3.79794e-08
1.5566e-06
-5.88768e-08
1.55957e-06
2.41467e-08
1.55667e-06
-4.35271e-08
1.55941e-06
1.35113e-08
1.55653e-06
-3.06472e-08
1.55897e-06
5.61332e-09
1.55615e-06
-1.97006e-08
1.55811e-06
3.03406e-10
1.55547e-06
-1.02473e-08
1.55657e-06
-1.98867e-09
1.55447e-06
-2.14928e-09
1.55375e-06
5.1963e-10
1.55261e-06
7.28747e-09
1.5477e-06
2.03425e-08
1.54342e-06
4.2214e-08
9.51474e-08
1.51251e-06
1.61647e-06
-3.19026e-07
1.62233e-06
2.41945e-07
1.61915e-06
-2.56031e-07
1.62432e-06
1.84052e-07
1.62127e-06
-2.05734e-07
1.626e-06
1.37913e-07
1.62294e-06
-1.59934e-07
1.62708e-06
1.02502e-07
1.62402e-06
-1.23967e-07
1.62773e-06
7.44462e-08
1.62467e-06
-9.64175e-08
1.62812e-06
5.22256e-08
1.62508e-06
-7.42704e-08
1.62833e-06
3.47279e-08
1.62532e-06
-5.58627e-08
1.62839e-06
2.10765e-08
1.6254e-06
-4.0534e-08
1.62823e-06
1.06773e-08
1.62529e-06
-2.77094e-08
1.62776e-06
3.14126e-09
1.62498e-06
-1.69131e-08
1.62684e-06
-1.56016e-09
1.62436e-06
-7.76623e-09
1.62518e-06
-2.81232e-09
1.6234e-06
-3.65896e-10
1.62204e-06
1.8812e-09
1.62159e-06
7.73387e-09
1.61648e-06
2.54557e-08
1.6117e-06
4.69924e-08
1.31737e-07
1.57511e-06
1.69324e-06
-3.14695e-07
1.6984e-06
2.36786e-07
1.69474e-06
-2.52365e-07
1.69936e-06
1.79432e-07
1.696e-06
-2.02374e-07
1.7004e-06
1.33506e-07
1.69712e-06
-1.5665e-07
1.70111e-06
9.8505e-08
1.69783e-06
-1.20682e-07
1.70155e-06
7.07285e-08
1.69826e-06
-9.31284e-08
1.7018e-06
4.86824e-08
1.69853e-06
-7.09991e-08
1.70192e-06
3.13365e-08
1.69869e-06
-5.26318e-08
1.70189e-06
1.7873e-08
1.69873e-06
-3.73742e-08
1.70165e-06
7.76565e-09
1.69863e-06
-2.46902e-08
1.70108e-06
6.8896e-10
1.69831e-06
-1.41449e-08
1.70007e-06
-3.3152e-09
1.69761e-06
-5.30597e-09
1.69858e-06
-3.782e-09
1.69574e-06
2.46589e-09
1.69646e-06
1.16219e-09
1.69129e-06
1.29028e-08
1.69578e-06
2.09654e-08
1.69684e-06
4.59354e-08
8.22935e-08
1.74628e-06
1.77388e-06
-3.09849e-07
1.77878e-06
2.31885e-07
1.7746e-06
-2.48193e-07
1.77905e-06
1.74984e-07
1.77528e-06
-1.98603e-07
1.77967e-06
1.29115e-07
1.77602e-06
-1.53e-07
1.78011e-06
9.44177e-08
1.77647e-06
-1.17042e-07
1.78035e-06
6.6848e-08
1.77672e-06
-8.94976e-08
1.78045e-06
4.49492e-08
1.77687e-06
-6.74177e-08
1.78044e-06
2.77716e-08
1.77695e-06
-4.91499e-08
1.78027e-06
1.4554e-08
1.77696e-06
-3.40565e-08
1.77988e-06
4.84206e-09
1.77684e-06
-2.1652e-08
1.77915e-06
-1.61489e-09
1.77653e-06
-1.153e-08
1.77797e-06
-4.75496e-09
1.7758e-06
-3.13728e-09
1.7763e-06
-4.28263e-09
1.77372e-06
5.05214e-09
1.77428e-06
5.95074e-10
1.76817e-06
1.90148e-08
1.77456e-06
1.45716e-08
1.7762e-06
4.43047e-08
2.65154e-08
1.83197e-06
1.85845e-06
-3.04551e-07
1.86348e-06
2.2686e-07
1.85875e-06
-2.43466e-07
1.86333e-06
1.70402e-07
1.85907e-06
-1.94341e-07
1.86368e-06
1.24505e-07
1.85958e-06
-1.48905e-07
1.86392e-06
9.00771e-08
1.85986e-06
-1.1298e-07
1.86401e-06
6.27036e-08
1.85999e-06
-8.5485e-08
1.86397e-06
4.09754e-08
1.86006e-06
-6.35153e-08
1.86381e-06
2.40275e-08
1.8601e-06
-4.54391e-08
1.8635e-06
1.11566e-08
1.86008e-06
-3.06391e-08
1.86294e-06
1.98429e-09
1.85997e-06
-1.86856e-08
1.86202e-06
-3.66246e-09
1.85967e-06
-9.18731e-09
1.86065e-06
-5.72637e-09
1.85898e-06
-1.46677e-09
1.85858e-06
-3.88704e-09
1.8574e-06
6.2361e-09
1.85529e-06
2.69772e-09
1.8536e-06
2.07059e-08
1.84858e-06
1.95915e-08
1.83879e-06
5.40931e-08
6.24093e-08
1.8029e-06
1.94711e-06
-2.98817e-07
1.95252e-06
2.21449e-07
1.94718e-06
-2.38132e-07
1.9521e-06
1.65484e-07
1.9473e-06
-1.89534e-07
1.95228e-06
1.1952e-07
1.9477e-06
-1.4432e-07
1.9524e-06
8.5376e-08
1.94789e-06
-1.08471e-07
1.95236e-06
5.82306e-08
1.94796e-06
-8.10865e-08
1.9522e-06
3.67341e-08
1.948e-06
-5.93147e-08
1.95191e-06
2.01161e-08
1.94803e-06
-4.15549e-08
1.95145e-06
7.73379e-09
1.94803e-06
-2.72138e-08
1.95073e-06
-7.13382e-10
1.94795e-06
-1.59113e-08
1.94964e-06
-5.3467e-09
1.94767e-06
-7.2255e-09
1.94809e-06
-6.14325e-09
1.94698e-06
-3.60387e-10
1.94578e-06
-2.67983e-09
1.94542e-06
6.58867e-09
1.94181e-06
6.3161e-09
1.94277e-06
1.97443e-08
1.93161e-06
3.07526e-08
1.92698e-06
5.87229e-08
9.36452e-08
1.89574e-06
2.04002e-06
-2.92644e-07
2.04598e-06
2.15484e-07
2.03999e-06
-2.32144e-07
2.04538e-06
1.60099e-07
2.03998e-06
-1.8414e-07
2.04544e-06
1.1406e-07
2.04034e-06
-1.39221e-07
2.04547e-06
8.02465e-08
2.04051e-06
-1.03509e-07
2.04535e-06
5.33953e-08
2.04058e-06
-7.63191e-08
2.04509e-06
3.22264e-08
2.04064e-06
-5.4864e-08
2.04467e-06
1.6078e-08
2.0407e-06
-3.7583e-08
2.04407e-06
4.36971e-09
2.04076e-06
-2.39086e-08
2.04317e-06
-3.12405e-09
2.04074e-06
-1.34793e-08
2.04194e-06
-6.54768e-09
2.04047e-06
-5.75756e-09
2.04028e-06
-5.9525e-09
2.03964e-06
2.83485e-10
2.0381e-06
-1.14149e-09
2.03736e-06
7.33239e-09
2.03418e-06
9.49077e-09
2.03309e-06
2.084e-08
2.02604e-06
3.78002e-08
2.01454e-06
7.02217e-08
1.26905e-07
1.98128e-06
2.13738e-06
-2.86021e-07
2.14401e-06
2.08855e-07
2.13731e-06
-2.25452e-07
2.14325e-06
1.54164e-07
2.13723e-06
-1.78123e-07
2.14323e-06
1.08058e-07
2.1376e-06
-1.3359e-07
2.1432e-06
7.46502e-08
2.13779e-06
-9.80961e-08
2.14299e-06
4.81915e-08
2.13789e-06
-7.12156e-08
2.14263e-06
2.74814e-08
2.138e-06
-5.02306e-08
2.1421e-06
1.19802e-08
2.13814e-06
-3.36266e-08
2.14134e-06
1.16508e-09
2.13828e-06
-2.0845e-08
2.1403e-06
-5.14701e-09
2.13832e-06
-1.1492e-08
2.13898e-06
-7.21054e-09
2.13799e-06
-4.76404e-09
2.13747e-06
-5.43471e-09
2.13659e-06
1.1629e-09
2.13575e-06
-3.02384e-10
2.13352e-06
9.56096e-09
2.13166e-06
1.13499e-08
2.12603e-06
2.64709e-08
2.132e-06
3.18268e-08
2.15564e-06
4.6583e-08
5.20144e-08
2.23053e-06
2.2394e-06
-2.78933e-07
2.24677e-06
2.01482e-07
2.23933e-06
-2.18006e-07
2.24588e-06
1.47617e-07
2.2392e-06
-1.71447e-07
2.24579e-06
1.01472e-07
2.23961e-06
-1.27416e-07
2.24569e-06
6.85739e-08
2.23985e-06
-9.2253e-08
2.24539e-06
4.26429e-08
2.24001e-06
-6.58314e-08
2.24493e-06
2.2564e-08
2.24021e-06
-4.55129e-08
2.24426e-06
7.93352e-09
2.24046e-06
-2.98317e-08
2.24335e-06
-1.72318e-09
2.24071e-06
-1.8202e-08
2.24218e-06
-6.61703e-09
2.2408e-06
-1.01161e-08
2.24077e-06
-7.1823e-09
2.24045e-06
-4.4375e-09
2.2391e-06
-4.0939e-09
2.23923e-06
1.03917e-09
2.23687e-06
2.05385e-09
2.23627e-06
1.01618e-08
2.23286e-06
1.47609e-08
2.23045e-06
2.88803e-08
2.22341e-06
3.88649e-08
2.20737e-06
6.26215e-08
8.28708e-08
2.17652e-06
2.34631e-06
-2.71363e-07
2.35448e-06
1.93304e-07
2.34623e-06
-2.09757e-07
2.35344e-06
1.40413e-07
2.34608e-06
-1.64085e-07
2.35327e-06
9.42785e-08
2.34655e-06
-1.20701e-07
2.3531e-06
6.20247e-08
2.34686e-06
-8.60129e-08
2.35271e-06
3.67965e-08
2.34712e-06
-6.02407e-08
2.35212e-06
1.75647e-08
2.34743e-06
-4.08289e-08
2.3513e-06
4.06958e-09
2.34782e-06
-2.6354e-08
2.35023e-06
-4.1365e-09
2.34817e-06
-1.61375e-08
2.34897e-06
-7.41279e-09
2.34828e-06
-9.43431e-09
2.34753e-06
-6.43037e-09
2.34789e-06
-4.79907e-09
2.34559e-06
-1.78837e-09
2.347e-06
-3.72501e-10
2.34274e-06
6.30968e-09
2.34445e-06
8.456e-09
2.33857e-06
2.06442e-08
2.33944e-06
2.80026e-08
2.32463e-06
5.368e-08
2.31508e-06
7.21686e-08
1.07115e-07
2.29084e-06
2.45833e-06
-2.63298e-07
2.46735e-06
1.84281e-07
2.45827e-06
-2.0067e-07
2.46615e-06
1.32529e-07
2.45809e-06
-1.56024e-07
2.46589e-06
8.64811e-08
2.45865e-06
-1.13467e-07
2.46564e-06
5.50412e-08
2.45906e-06
-7.94397e-08
2.46512e-06
3.07361e-08
2.45944e-06
-5.45521e-08
2.46439e-06
1.2608e-08
2.45988e-06
-3.63173e-08
2.46343e-06
5.24366e-10
2.46039e-06
-2.33168e-08
2.46225e-06
-5.99238e-09
2.46079e-06
-1.46791e-08
2.46099e-06
-7.61332e-09
2.46075e-06
-9.19199e-09
2.45977e-06
-5.45362e-09
2.45995e-06
-4.97863e-09
2.4584e-06
-2.41844e-10
2.45818e-06
-1.5359e-10
2.456e-06
8.49233e-09
2.45453e-06
9.92852e-09
2.45137e-06
2.37989e-08
2.44883e-06
3.05445e-08
2.44069e-06
6.18164e-08
2.42252e-06
9.03392e-08
1.41317e-07
2.38832e-06
2.57573e-06
-2.5473e-07
2.58562e-06
1.74383e-07
2.57568e-06
-1.90723e-07
2.58425e-06
1.23958e-07
2.5755e-06
-1.47272e-07
2.58387e-06
7.81055e-08
2.57617e-06
-1.05762e-07
2.58352e-06
4.76897e-08
2.5767e-06
-7.26262e-08
2.58286e-06
2.45776e-08
2.57722e-06
-4.89047e-08
2.58198e-06
7.84499e-09
2.57779e-06
-3.2133e-08
2.58088e-06
-2.55954e-09
2.5784e-06
-2.08342e-08
2.57964e-06
-7.23867e-09
2.57876e-06
-1.37979e-08
2.5785e-06
-7.35329e-09
2.57846e-06
-9.14738e-09
2.57764e-06
-4.64091e-09
2.57695e-06
-4.28091e-09
2.57715e-06
-4.41168e-10
2.5742e-06
2.79465e-09
2.5753e-06
7.38861e-09
2.56985e-06
1.53778e-08
2.56911e-06
2.45391e-08
2.56122e-06
3.84321e-08
2.57823e-06
4.48102e-08
2.61402e-06
5.45496e-08
5.44833e-08
2.70085e-06
2.69876e-06
-2.45658e-07
2.70955e-06
1.63594e-07
2.69873e-06
-1.79909e-07
2.70798e-06
1.1471e-07
2.69856e-06
-1.37856e-07
2.70747e-06
6.92008e-08
2.69936e-06
-9.76594e-08
2.70699e-06
4.00683e-08
2.70006e-06
-6.57033e-08
2.70616e-06
1.84813e-08
2.70074e-06
-4.34837e-08
2.70511e-06
3.47711e-09
2.70147e-06
-2.84952e-08
2.70387e-06
-4.9629e-09
2.70213e-06
-1.90927e-08
2.70263e-06
-7.73763e-09
2.70245e-06
-1.3615e-08
2.70152e-06
-6.42877e-09
2.70208e-06
-9.70915e-09
2.70049e-06
-3.05e-09
2.70102e-06
-4.80707e-09
2.69911e-06
1.46501e-09
2.69884e-06
3.06927e-09
2.69655e-06
9.6742e-09
2.69464e-06
1.72938e-08
2.69173e-06
2.74408e-08
2.68822e-06
4.19441e-08
2.67916e-06
5.3872e-08
2.65801e-06
7.57014e-08
8.93284e-08
2.62316e-06
2.82769e-06
-2.36075e-07
2.83938e-06
1.51904e-07
2.8277e-06
-1.68229e-07
2.8376e-06
1.04803e-07
2.82755e-06
-1.27807e-07
2.83693e-06
5.98254e-08
2.82851e-06
-8.92374e-08
2.8363e-06
3.22771e-08
2.82939e-06
-5.87943e-08
2.8353e-06
1.25716e-08
2.83019e-06
-3.83764e-08
2.83412e-06
-4.49031e-10
2.83105e-06
-2.54273e-08
2.83279e-06
-6.70213e-09
2.83173e-06
-1.80336e-08
2.83159e-06
-7.60036e-09
2.83193e-06
-1.39538e-08
2.83055e-06
-5.04371e-09
2.83161e-06
-1.07694e-08
2.82913e-06
-5.68747e-10
2.83105e-06
-6.73389e-09
2.8267e-06
5.81348e-09
2.82993e-06
-1.54063e-10
2.82342e-06
1.61865e-08
2.82696e-06
1.37485e-08
2.81928e-06
3.51201e-08
2.82037e-06
4.08581e-08
2.79977e-06
7.44689e-08
2.79033e-06
8.51451e-08
1.14078e-07
2.76558e-06
2.96281e-06
-2.25992e-07
2.97538e-06
1.39332e-07
2.96288e-06
-1.55722e-07
2.97338e-06
9.43009e-08
2.96278e-06
-1.17208e-07
2.97251e-06
5.00972e-08
2.96391e-06
-8.06422e-08
2.97169e-06
2.44987e-08
2.96502e-06
-5.21257e-08
2.97045e-06
7.1438e-09
2.96611e-06
-3.40363e-08
2.96901e-06
-3.34707e-09
2.96705e-06
-2.34722e-08
2.96776e-06
-7.40893e-09
2.96755e-06
-1.78199e-08
2.96684e-06
-6.8917e-09
2.96739e-06
-1.45051e-08
2.96615e-06
-3.80171e-09
2.96675e-06
-1.13734e-08
2.96514e-06
1.04004e-09
2.96535e-06
-6.93852e-09
2.96342e-06
7.74076e-09
2.96323e-06
3.37484e-11
2.96002e-06
1.93962e-08
2.95837e-06
1.53986e-08
2.95584e-06
3.76487e-08
2.95313e-06
4.3569e-08
2.94211e-06
8.54865e-08
2.91665e-06
1.10613e-07
1.52003e-07
2.87872e-06
3.10445e-06
-2.15432e-07
3.11786e-06
1.25917e-07
3.10459e-06
-1.42452e-07
3.11561e-06
8.3283e-08
3.10456e-06
-1.06153e-07
3.11452e-06
4.01366e-08
3.10588e-06
-7.2004e-08
3.11351e-06
1.68635e-08
3.10719e-06
-4.58006e-08
3.11213e-06
2.19731e-09
3.1083e-06
-3.02e-08
3.11078e-06
-5.82775e-09
3.10903e-06
-2.17209e-08
3.10996e-06
-8.33697e-09
3.10883e-06
-1.66917e-08
3.10987e-06
-7.93891e-09
3.10766e-06
-1.22903e-08
3.11024e-06
-6.38403e-09
3.10558e-06
-6.71087e-09
3.11065e-06
-4.03292e-09
3.1027e-06
1.00901e-09
3.11041e-06
3.48896e-11
3.09977e-06
1.06784e-08
3.10779e-06
1.137e-08
3.09553e-06
2.76607e-08
3.09895e-06
3.42323e-08
3.08839e-06
5.41294e-08
3.12122e-06
5.26542e-08
3.16731e-06
6.45223e-08
5.98841e-08
3.25943e-06
3.25291e-06
-2.04431e-07
3.26711e-06
1.11718e-07
3.25318e-06
-1.28528e-07
3.26459e-06
7.18712e-08
3.25323e-06
-9.47849e-08
3.26324e-06
3.01241e-08
3.25476e-06
-6.35289e-08
3.26201e-06
9.61468e-09
3.25634e-06
-4.01275e-08
3.26038e-06
-1.84396e-09
3.25767e-06
-2.74878e-08
3.25889e-06
-7.0496e-09
3.2585e-06
-2.13267e-08
3.25792e-06
-7.75931e-09
3.2586e-06
-1.73685e-08
3.25724e-06
-6.57924e-09
3.25843e-06
-1.34807e-08
3.25615e-06
-4.10307e-09
3.25824e-06
-8.80752e-09
3.25432e-06
-1.15374e-10
3.25764e-06
-2.3085e-09
3.25157e-06
6.10791e-09
3.25532e-06
6.93029e-09
3.24815e-06
1.85394e-08
3.25205e-06
2.37537e-08
3.24584e-06
4.04449e-08
3.24733e-06
5.26452e-08
3.22661e-06
7.33689e-08
3.20305e-06
8.80826e-08
1.01723e-07
3.16121e-06
3.40852e-06
-1.93019e-07
3.42342e-06
9.68136e-08
3.40898e-06
-1.14082e-07
3.42064e-06
6.02118e-08
3.40912e-06
-8.32642e-08
3.41897e-06
2.02687e-08
3.41089e-06
-5.54505e-08
3.41749e-06
3.02161e-09
3.4128e-06
-3.54428e-08
3.41555e-06
-4.58875e-09
3.41435e-06
-2.62943e-08
3.41397e-06
-6.66834e-09
3.41512e-06
-2.24789e-08
3.41303e-06
-5.66702e-09
3.41525e-06
-1.95854e-08
3.41219e-06
-3.5188e-09
3.41533e-06
-1.66199e-08
3.41089e-06
3.31333e-10
3.41492e-06
-1.28296e-08
3.4092e-06
5.59651e-09
3.41425e-06
-7.35408e-09
3.40621e-06
1.41478e-08
3.41216e-06
9.81551e-10
3.40296e-06
2.77372e-08
3.40798e-06
1.8735e-08
3.40172e-06
4.67075e-08
3.40651e-06
4.78503e-08
3.38213e-06
9.77489e-08
3.35512e-06
1.15098e-07
1.46215e-07
3.31062e-06
3.57165e-06
-1.8126e-07
3.58714e-06
8.1331e-08
3.57235e-06
-9.93013e-08
3.58408e-06
4.84853e-08
3.57256e-06
-7.17461e-08
3.58212e-06
1.07066e-08
3.57444e-06
-4.77639e-08
3.58064e-06
-3.18285e-09
3.57619e-06
-3.09931e-08
3.57914e-06
-7.53841e-09
3.577e-06
-2.41543e-08
3.57861e-06
-8.27255e-09
3.57655e-06
-2.04271e-08
3.57902e-06
-8.12714e-09
3.57509e-06
-1.56639e-08
3.57992e-06
-8.34525e-09
3.57279e-06
-9.4942e-09
3.58139e-06
-8.2627e-09
3.56976e-06
-1.19761e-09
3.58195e-06
-6.60048e-09
3.56656e-06
8.03886e-09
3.58212e-06
-1.41007e-09
3.56347e-06
1.96336e-08
3.5798e-06
1.14083e-08
3.55951e-06
3.90158e-08
3.56973e-06
3.64949e-08
3.5556e-06
6.19756e-08
3.60407e-06
4.92756e-08
3.65616e-06
6.30144e-08
5.83207e-08
3.74405e-06
3.74268e-06
-1.69236e-07
3.75858e-06
6.54349e-08
3.74373e-06
-8.44519e-08
3.75527e-06
3.69457e-08
3.744e-06
-6.04816e-08
3.75293e-06
1.77787e-09
3.74605e-06
-4.08838e-08
3.75128e-06
-8.41511e-09
3.74798e-06
-2.76893e-08
3.74962e-06
-9.17383e-09
3.74919e-06
-2.37295e-08
3.74838e-06
-7.45923e-09
3.74994e-06
-2.19934e-08
3.74691e-06
-5.09593e-09
3.75081e-06
-1.95642e-08
3.74519e-06
-2.72216e-09
3.75135e-06
-1.56581e-08
3.74334e-06
-2.49609e-10
3.75159e-06
-9.45056e-09
3.74172e-06
3.27591e-09
3.74977e-06
-1.22062e-11
3.73914e-06
9.22145e-09
3.74665e-06
1.21196e-08
3.73701e-06
2.10451e-08
3.74481e-06
3.1218e-08
3.73799e-06
4.33214e-08
3.7377e-06
6.22614e-08
3.71442e-06
7.25584e-08
3.684e-06
9.34344e-08
1.0754e-07
3.63478e-06
3.92197e-06
-1.57017e-07
3.93808e-06
4.93236e-08
3.92351e-06
-6.98797e-08
3.93453e-06
2.59241e-08
3.92386e-06
-4.98097e-08
3.93172e-06
-6.08448e-09
3.92594e-06
-3.51002e-08
3.93013e-06
-1.2609e-08
3.92772e-06
-2.52798e-08
3.9287e-06
-1.01546e-08
3.92881e-06
-2.3841e-08
3.92736e-06
-6.00873e-09
3.93012e-06
-2.47543e-08
3.9252e-06
-1.67872e-10
3.93147e-06
-2.58362e-08
3.92279e-06
5.95378e-09
3.93306e-06
-2.59293e-08
3.91975e-06
1.30587e-08
3.93435e-06
-2.40456e-08
3.9163e-06
2.13266e-08
3.93484e-06
-1.8554e-08
3.91301e-06
3.1047e-08
3.93356e-06
-8.4296e-09
3.91134e-06
4.32734e-08
3.93376e-06
8.79365e-09
3.91539e-06
6.16894e-08
3.93627e-06
4.13823e-08
3.89052e-06
1.18309e-07
3.85795e-06
1.26007e-07
1.55315e-07
3.81017e-06
4.10994e-06
-1.44703e-07
4.12604e-06
3.32199e-08
4.11207e-06
-5.59069e-08
4.12239e-06
1.55962e-08
4.11217e-06
-3.95847e-08
4.11953e-06
-1.3441e-08
4.11366e-06
-2.92353e-08
4.11896e-06
-1.79077e-08
4.11387e-06
-2.01936e-08
4.11962e-06
-1.59019e-08
4.11258e-06
-1.67996e-08
4.12093e-06
-1.43549e-08
4.11043e-06
-1.42608e-08
4.12255e-06
-1.22871e-08
4.10824e-06
-1.15207e-08
4.12357e-06
-9.381e-09
4.10622e-06
-8.57974e-09
4.12403e-06
-4.74912e-09
4.10442e-06
-4.4367e-09
4.12348e-06
2.26657e-09
4.10287e-06
2.06058e-09
4.12102e-06
1.28978e-08
4.1007e-06
1.18877e-08
4.11666e-06
2.73142e-08
4.098e-06
2.74539e-08
4.11613e-06
4.3552e-08
4.10758e-06
4.99323e-08
4.15828e-06
6.76144e-08
4.21035e-06
7.39354e-08
8.52298e-08
4.28044e-06
4.30706e-06
-1.32456e-07
4.32278e-06
1.74982e-08
4.3103e-06
-4.3434e-08
4.319e-06
6.89995e-09
4.31016e-06
-3.07491e-08
4.31555e-06
-1.88313e-08
4.31141e-06
-2.50865e-08
4.3151e-06
-2.15992e-08
4.31148e-06
-1.6577e-08
4.31597e-06
-2.03861e-08
4.31026e-06
-1.10954e-08
4.31719e-06
-2.12851e-08
4.30831e-06
-5.38438e-09
4.31881e-06
-2.27862e-08
4.3058e-06
1.49254e-09
4.32009e-06
-2.36727e-08
4.30356e-06
7.95643e-09
4.32085e-06
-2.20398e-08
4.30136e-06
1.50528e-08
4.32058e-06
-1.69611e-08
4.29917e-06
2.34785e-08
4.3193e-06
-7.2394e-09
4.29673e-06
3.44585e-08
4.31494e-06
9.10797e-09
4.293e-06
4.93951e-08
4.31217e-06
2.43776e-08
4.31046e-06
5.16486e-08
4.36139e-06
1.66782e-08
4.4097e-06
2.56238e-08
4.29714e-09
4.49064e-06
4.51379e-06
-1.20474e-07
4.5286e-06
2.68532e-09
4.51945e-06
-3.42768e-08
4.52497e-06
1.37402e-09
4.51792e-06
-2.37005e-08
4.52085e-06
-2.17528e-08
4.51884e-06
-2.30758e-08
4.51958e-06
-2.23439e-08
4.51985e-06
-1.68442e-08
4.51924e-06
-1.9778e-08
4.52107e-06
-1.29261e-08
4.51811e-06
-1.83213e-08
4.52193e-06
-9.20631e-09
4.51655e-06
-1.74091e-08
4.52259e-06
-4.54696e-09
4.51512e-06
-1.61986e-08
4.52265e-06
4.21801e-10
4.51382e-06
-1.32051e-08
4.5218e-06
7.06932e-09
4.51192e-06
-7.08039e-09
4.519e-06
1.63946e-08
4.50817e-06
3.59839e-09
4.51293e-06
2.96987e-08
4.50432e-06
1.77143e-08
4.51206e-06
4.16589e-08
4.50487e-06
3.15614e-08
4.50853e-06
4.79905e-08
4.48e-06
4.52087e-08
4.44235e-06
6.32776e-08
6.19447e-08
4.3847e-06
4.73037e-06
-1.08732e-07
4.74458e-06
-1.15225e-08
4.73645e-06
-2.61501e-08
4.74161e-06
-3.78321e-09
4.73505e-06
-1.71356e-08
4.73664e-06
-2.33511e-08
4.73558e-06
-2.20152e-08
4.73486e-06
-2.1617e-08
4.73771e-06
-1.96937e-08
4.73378e-06
-1.58479e-08
4.73961e-06
-1.8755e-08
4.73185e-06
-1.0566e-08
4.7411e-06
-1.84555e-08
4.72947e-06
-5.77759e-09
4.7426e-06
-1.76785e-08
4.7273e-06
-8.99582e-10
4.74318e-06
-1.54586e-08
4.72563e-06
4.34765e-09
4.74279e-06
-1.00877e-08
4.7242e-06
1.15012e-08
4.74125e-06
-6.53488e-10
4.72275e-06
2.2104e-08
4.73991e-06
1.25388e-08
4.7228e-06
3.48191e-08
4.73665e-06
2.78131e-08
4.71441e-06
5.37999e-08
4.71151e-06
5.08854e-08
4.68669e-06
7.00359e-08
4.68023e-06
6.97333e-08
9.43659e-08
4.64781e-06
4.95773e-06
-9.76626e-08
4.96944e-06
-2.32319e-08
4.96704e-06
-2.3751e-08
4.96602e-06
-2.76181e-09
4.96602e-06
-1.71401e-08
4.96119e-06
-1.85201e-08
4.96411e-06
-2.49312e-08
4.96047e-06
-1.79779e-08
4.96495e-06
-2.41772e-08
4.96058e-06
-1.14727e-08
4.9656e-06
-2.37766e-08
4.96017e-06
-5.13388e-09
4.96569e-06
-2.39763e-08
4.95942e-06
4.85723e-10
4.96505e-06
-2.33013e-08
4.95917e-06
4.97424e-09
4.96425e-06
-2.05371e-08
4.95785e-06
1.07457e-08
4.9615e-06
-1.37377e-08
4.95413e-06
1.8878e-08
4.95607e-06
-2.59619e-09
4.9494e-06
2.8769e-08
4.95078e-06
1.11595e-08
4.94709e-06
3.85088e-08
4.9475e-06
2.741e-08
4.9493e-06
5.19931e-08
4.94717e-06
5.30219e-08
4.91868e-06
9.85215e-08
4.87518e-06
1.13233e-07
1.30918e-07
4.83863e-06
5.19565e-06
-8.69985e-08
5.20697e-06
-3.45474e-08
5.20261e-06
-1.93938e-08
5.20674e-06
-6.88688e-09
5.19818e-06
-8.58585e-09
5.20484e-06
-2.51787e-08
5.19549e-06
-1.55791e-08
5.20628e-06
-2.87719e-08
5.1938e-06
-1.16914e-08
5.20846e-06
-2.61371e-08
5.19173e-06
-7.04737e-09
5.21016e-06
-2.35607e-08
5.18945e-06
-3.27221e-09
5.21151e-06
-2.15691e-08
5.18773e-06
4.79349e-10
5.21152e-06
-1.88203e-08
5.18704e-06
3.94274e-09
5.2107e-06
-1.29067e-08
5.18674e-06
1.02191e-08
5.20941e-06
-3.7984e-09
5.18679e-06
2.00308e-08
5.2057e-06
9.86057e-09
5.18236e-06
3.44998e-08
5.19295e-06
2.79103e-08
5.17276e-06
4.76059e-08
5.18443e-06
4.03246e-08
5.19029e-06
4.71623e-08
5.26246e-06
2.63469e-08
5.34944e-06
2.62589e-08
2.69944e-08
5.45336e-06
5.44553e-06
-7.73431e-08
5.45216e-06
-4.11706e-08
5.45591e-06
-2.31435e-08
5.45019e-06
-1.17213e-09
5.45552e-06
-1.39149e-08
5.44612e-06
-1.57774e-08
5.45254e-06
-2.19963e-08
5.4458e-06
-2.2031e-08
5.45204e-06
-1.79371e-08
5.44696e-06
-2.1057e-08
5.45182e-06
-1.19071e-08
5.4478e-06
-1.95358e-08
5.45088e-06
-6.3554e-09
5.44666e-06
-1.73545e-08
5.44866e-06
-1.51194e-09
5.44424e-06
-1.44054e-08
5.44469e-06
3.4956e-09
5.44154e-06
-9.76335e-09
5.44261e-06
9.15224e-09
5.43874e-06
7.64696e-11
5.43938e-06
1.93914e-08
5.43527e-06
1.39661e-08
5.43561e-06
3.41655e-08
5.4336e-06
2.99149e-08
5.43481e-06
4.63968e-08
5.43408e-06
4.1053e-08
5.42347e-06
5.77713e-08
5.39718e-06
5.26357e-08
5.35867e-06
6.47756e-08
6.49013e-08
5.32076e-06
5.70689e-06
-6.82789e-08
5.71275e-06
-4.70305e-08
5.71491e-06
-2.5303e-08
5.71523e-06
-1.48883e-09
5.71498e-06
-1.36637e-08
5.71071e-06
-1.15085e-08
5.71098e-06
-2.22683e-08
5.70718e-06
-1.8226e-08
5.71142e-06
-2.21756e-08
5.70772e-06
-1.73603e-08
5.71329e-06
-1.74767e-08
5.70734e-06
-1.35898e-08
5.71354e-06
-1.25521e-08
5.70617e-06
-9.98258e-09
5.71339e-06
-8.7392e-09
5.70474e-06
-5.74931e-09
5.71237e-06
-4.13791e-09
5.70221e-06
3.96489e-10
5.70738e-06
3.98009e-09
5.69806e-06
9.39963e-09
5.70256e-06
1.48959e-08
5.69556e-06
2.09595e-08
5.70063e-06
2.91023e-08
5.69357e-06
3.697e-08
5.69384e-06
4.61235e-08
5.68137e-06
5.35269e-08
5.67647e-06
6.26746e-08
5.65933e-06
6.97735e-08
5.6444e-06
7.97078e-08
8.78024e-08
5.6215e-06
5.98102e-06
-6.01068e-08
5.98131e-06
-4.73227e-08
5.9888e-06
-3.27877e-08
5.9877e-06
-3.90814e-10
5.99014e-06
-1.61025e-08
5.98169e-06
-3.05829e-09
5.98753e-06
-2.81113e-08
5.97893e-06
-9.62444e-09
5.98816e-06
-3.14063e-08
5.97926e-06
-8.46237e-09
5.98851e-06
-2.67258e-08
5.97959e-06
-4.66846e-09
5.98741e-06
-2.03716e-08
5.97895e-06
-1.51925e-09
5.98358e-06
-1.33697e-08
5.976e-06
1.82979e-09
5.97866e-06
-6.80536e-09
5.97296e-06
6.10336e-09
5.97568e-06
1.25755e-09
5.97069e-06
1.4394e-08
5.97355e-06
1.20292e-08
5.96889e-06
2.56187e-08
5.97243e-06
2.5564e-08
5.96737e-06
4.2034e-08
5.96687e-06
4.66222e-08
5.95497e-06
6.54305e-08
5.94881e-06
6.8835e-08
5.9319e-06
8.66772e-08
5.91923e-06
9.23832e-08
1.02792e-07
5.90424e-06
6.26823e-06
-5.2848e-08
6.26551e-06
-4.45985e-08
6.27628e-06
-4.3558e-08
6.27057e-06
5.31252e-09
6.2787e-06
-2.4231e-08
6.26611e-06
9.53062e-09
6.27576e-06
-3.77633e-08
6.26443e-06
1.71018e-09
6.27599e-06
-4.29696e-08
6.26485e-06
2.68119e-09
6.27598e-06
-3.78585e-08
6.26498e-06
6.33312e-09
6.27507e-06
-3.04655e-08
6.26443e-06
9.12271e-09
6.27343e-06
-2.23644e-08
6.26231e-06
1.29501e-08
6.26885e-06
-1.33535e-08
6.25832e-06
1.66381e-08
6.26359e-06
-4.01509e-09
6.25632e-06
2.16704e-08
6.25966e-06
8.6837e-09
6.25324e-06
3.20372e-08
6.25518e-06
2.36228e-08
6.25287e-06
4.43495e-08
6.26048e-06
3.90117e-08
6.25641e-06
6.95042e-08
6.24747e-06
7.77733e-08
6.21275e-06
1.21393e-07
6.16409e-06
1.41044e-07
1.29497e-07
6.13739e-06
6.56773e-06
-4.51051e-08
6.5773e-06
-5.41759e-08
6.56169e-06
-2.79466e-08
6.58073e-06
-1.37227e-08
6.56139e-06
-4.88919e-09
6.58179e-06
-1.0869e-08
6.55988e-06
-1.58553e-08
6.58161e-06
-2.0018e-08
6.55977e-06
-2.11342e-08
6.58174e-06
-1.92867e-08
6.55977e-06
-1.58937e-08
6.58112e-06
-1.50116e-08
6.5599e-06
-9.25226e-09
6.57992e-06
-1.08964e-08
6.5602e-06
-2.64199e-09
6.57812e-06
-4.96799e-09
6.56045e-06
4.31536e-09
6.57463e-06
2.4633e-09
6.55797e-06
1.26406e-08
6.56662e-06
1.30211e-08
6.55434e-06
2.09619e-08
6.56116e-06
2.52158e-08
6.54802e-06
3.6765e-08
6.55028e-06
4.20899e-08
6.54168e-06
4.76072e-08
6.5693e-06
4.18865e-08
6.60366e-06
4.34175e-08
6.6852e-06
3.9851e-08
6.78533e-06
4.09167e-08
5.86829e-08
6.85614e-06
6.88452e-06
-3.9836e-08
6.87797e-06
-4.76256e-08
6.89042e-06
-4.03996e-08
6.88267e-06
-5.97335e-09
6.89375e-06
-1.5961e-08
6.88319e-06
-3.16455e-10
6.88986e-06
-2.25167e-08
6.88163e-06
-1.17939e-08
6.88717e-06
-2.66769e-08
6.8808e-06
-1.29121e-08
6.88662e-06
-2.17128e-08
6.87985e-06
-8.24224e-09
6.88472e-06
-1.41272e-08
6.8763e-06
-2.46971e-09
6.88059e-06
-6.93042e-09
6.87293e-06
2.69268e-09
6.87719e-06
5.47306e-11
6.87063e-06
9.01497e-09
6.87411e-06
9.16623e-09
6.86921e-06
1.79214e-08
6.87177e-06
1.8403e-08
6.87232e-06
2.46607e-08
6.88605e-06
2.30325e-08
6.89882e-06
2.93238e-08
6.90999e-06
3.64406e-08
6.89652e-06
5.53497e-08
6.86919e-06
7.07555e-08
6.81664e-06
9.24007e-08
6.75049e-06
1.07064e-07
8.19203e-08
6.72725e-06
7.21243e-06
-3.31268e-08
7.22458e-06
-5.9774e-08
7.20228e-06
-1.81023e-08
7.22649e-06
-3.0189e-08
7.20277e-06
7.76104e-09
7.22825e-06
-2.57953e-08
7.20229e-06
3.44799e-09
7.22739e-06
-3.68987e-08
7.20355e-06
-2.8374e-09
7.22579e-06
-3.51545e-08
7.2048e-06
-7.17112e-10
7.22398e-06
-2.74258e-08
7.20604e-06
3.81009e-09
7.22168e-06
-1.81048e-08
7.20582e-06
8.9248e-09
7.2168e-06
-8.28066e-09
7.20166e-06
1.51913e-08
7.20918e-06
1.49926e-09
7.19789e-06
2.04529e-08
7.20485e-06
1.09637e-08
7.19688e-06
2.63678e-08
7.20183e-06
1.97158e-08
7.18965e-06
3.52117e-08
7.19007e-06
2.89024e-08
7.19024e-06
3.6266e-08
7.22175e-06
2.38482e-08
7.26881e-06
2.36878e-08
7.35241e-06
8.80186e-09
7.45592e-06
3.55725e-09
1.58825e-08
7.52196e-06