/*--------------------------------*- C++ -*----------------------------------*\
| =========                 |                                                 |
| \\      /  F ield         | OpenFOAM: The Open Source CFD Toolbox           |
|  \\    /   O peration     | Version:  v2006                                 |
|   \\  /    A nd           | Website:  www.openfoam.com                      |
|    \\/     M anipulation  |                                                 |
\*---------------------------------------------------------------------------*/
FoamFile
{
    version     2.0;
    format      ascii;
    class       volVectorField;
    location    "1.8";
    object      U;
}
// * * * * * * * * * * * * * * * * * * * * * * * * * * * * * * * * * * * * * //

dimensions      [0 1 -1 0 0 0 0];


internalField   nonuniform List<vector> 
26400
(
(0.90905 -0.00477683 0)
(1.09186 0.00444055 0)
(0.913074 -0.00426441 0)
(1.09153 0.0038678 0)
(0.919466 -0.00387991 0)
(1.09212 0.003336 0)
(0.925074 -0.00346394 0)
(1.09266 0.00286239 0)
(0.930022 -0.00310912 0)
(1.09315 0.00244098 0)
(0.934342 -0.00282443 0)
(1.0936 0.00206631 0)
(0.937963 -0.00257135 0)
(1.09409 0.00173155 0)
(0.940834 -0.00233222 0)
(1.09469 0.00143261 0)
(0.942915 -0.00210994 0)
(1.09548 0.00116478 0)
(0.944097 -0.00190185 0)
(1.09655 0.000924772 0)
(0.944216 -0.00170026 0)
(1.09801 0.000707924 0)
(0.943037 -0.00148521 0)
(1.09993 0.000505672 0)
(0.940222 -0.00120448 0)
(1.10228 0.000295523 0)
(0.935258 -0.00066759 0)
(1.10458 2.62782e-05 0)
(0.926805 0.00111156 0)
(1.10573 0.000367284 0)
(0.91594 -0.00481735 0)
(1.08604 0.00444274 0)
(0.922479 -0.0043297 0)
(1.08566 0.00386585 0)
(0.930515 -0.00395665 0)
(1.0856 0.00333498 0)
(0.937485 -0.00354424 0)
(1.08509 0.0028644 0)
(0.943774 -0.00319057 0)
(1.08418 0.00244624 0)
(0.949574 -0.0029062 0)
(1.08286 0.00207561 0)
(0.95496 -0.00265288 0)
(1.08113 0.00174568 0)
(0.960044 -0.00241246 0)
(1.07891 0.00145235 0)
(0.964996 -0.00218746 0)
(1.07605 0.00119236 0)
(0.970001 -0.00197484 0)
(1.07234 0.000964627 0)
(0.975295 -0.00176601 0)
(1.06742 0.000768264 0)
(0.98117 -0.00153525 0)
(1.06081 0.000594237 0)
(0.987933 -0.00121152 0)
(1.05178 0.000397858 0)
(0.995773 -0.000543524 0)
(1.03909 0.000216262 0)
(1.00437 0.00202152 0)
(1.02009 0.00151558 0)
(0.928118 -0.00486376 0)
(1.07425 0.00441939 0)
(0.937562 -0.00439176 0)
(1.07358 0.0038388 0)
(0.947708 -0.004021 0)
(1.07247 0.00330918 0)
(0.956442 -0.00360162 0)
(1.07042 0.00283864 0)
(0.964323 -0.00323741 0)
(1.06764 0.00241679 0)
(0.971645 -0.00293869 0)
(1.0642 0.00203856 0)
(0.978551 -0.00266597 0)
(1.06016 0.00169552 0)
(0.985152 -0.00239833 0)
(1.05555 0.00138063 0)
(0.99153 -0.00213436 0)
(1.05038 0.00108724 0)
(0.997677 -0.00186557 0)
(1.04472 0.000809294 0)
(1.00349 -0.0015773 0)
(1.03867 0.000542761 0)
(1.00874 -0.00124319 0)
(1.0324 0.00028702 0)
(1.01302 -0.000813378 0)
(1.02614 4.92933e-05 0)
(1.01566 -0.000127649 0)
(1.01992 5.992e-05 0)
(1.01545 0.00216797 0)
(1.01419 0.00376287 0)
(0.943427 -0.00489681 0)
(1.05836 0.00434446 0)
(0.954375 -0.004426 0)
(1.05722 0.00376251 0)
(0.965623 -0.0040425 0)
(1.05521 0.00323192 0)
(0.975134 -0.00360278 0)
(1.0521 0.00275692 0)
(0.983418 -0.00321595 0)
(1.04832 0.00232521 0)
(0.990745 -0.00289197 0)
(1.0441 0.0019324 0)
(0.997228 -0.00259114 0)
(1.03969 0.00157091 0)
(1.00291 -0.00229252 0)
(1.03527 0.00123488 0)
(1.00776 -0.00199554 0)
(1.03103 0.000920628 0)
(1.01171 -0.00169374 0)
(1.02712 0.000626269 0)
(1.01464 -0.00137525 0)
(1.02366 0.000354875 0)
(1.01643 -0.0010195 0)
(1.02066 0.000118293 0)
(1.01697 -0.000573404 0)
(1.01798 -4.35012e-05 0)
(1.01607 0.00016077 0)
(1.0152 0.000241421 0)
(1.0134 0.0025447 0)
(1.01234 0.00594013 0)
(0.959199 -0.00490857 0)
(1.04141 0.00422994 0)
(0.969562 -0.00443038 0)
(1.03994 0.00364767 0)
(0.980159 -0.00402746 0)
(1.03768 0.00311573 0)
(0.988823 -0.00356378 0)
(1.03458 0.0026383 0)
(0.995928 -0.00315402 0)
(1.03118 0.00220147 0)
(1.00171 -0.0028086 0)
(1.02779 0.00180218 0)
(1.00633 -0.00248849 0)
(1.02465 0.00143496 0)
(1.00987 -0.00217328 0)
(1.02193 0.00109589 0)
(1.01242 -0.00186257 0)
(1.01967 0.000783455 0)
(1.01405 -0.00155019 0)
(1.01785 0.00049778 0)
(1.01483 -0.00122446 0)
(1.01636 0.000246234 0)
(1.01483 -0.000867238 0)
(1.01501 4.62148e-05 0)
(1.01408 -0.000456531 0)
(1.01352 -1.94574e-06 0)
(1.01248 3.01408e-05 0)
(1.01146 0.0010978 0)
(1.00991 0.00165095 0)
(1.00918 0.00843359 0)
(0.973052 -0.0048971 0)
(1.02634 0.00410213 0)
(0.981135 -0.00441037 0)
(1.02492 0.00352084 0)
(0.989654 -0.00399035 0)
(1.02308 0.00298957 0)
(0.996314 -0.00350759 0)
(1.02081 0.00251558 0)
(1.0014 -0.00308162 0)
(1.01858 0.00208167 0)
(1.00518 -0.00272301 0)
(1.01659 0.00168477 0)
(1.00787 -0.00239261 0)
(1.01497 0.00132037 0)
(1.00969 -0.00206903 0)
(1.01373 0.000985012 0)
(1.01079 -0.00175057 0)
(1.01279 0.000678069 0)
(1.01129 -0.0014307 0)
(1.01204 0.000401851 0)
(1.0113 -0.00109979 0)
(1.01132 0.0001708 0)
(1.01086 -0.000741725 0)
(1.01045 8.34539e-06 0)
(1.00994 -0.000358011 0)
(1.00921 4.56722e-05 0)
(1.0084 0.000226525 0)
(1.00731 0.00106136 0)
(1.00624 0.00260613 0)
(1.00553 0.00619816 0)
(0.983632 -0.00486496 0)
(1.01489 0.00398257 0)
(0.988739 -0.00437336 0)
(1.0138 0.00340354 0)
(0.994692 -0.0039424 0)
(1.01269 0.00287414 0)
(0.999123 -0.0034471 0)
(1.01143 0.00240647 0)
(1.00229 -0.00301052 0)
(1.01031 0.00197774 0)
(1.00447 -0.00264272 0)
(1.0094 0.00158333 0)
(1.00592 -0.0023036 0)
(1.00874 0.00121865 0)
(1.00681 -0.00196981 0)
(1.00827 0.000879808 0)
(1.0073 -0.00163737 0)
(1.0079 0.000566226 0)
(1.00744 -0.00129857 0)
(1.00753 0.000281825 0)
(1.00728 -0.000944669 0)
(1.00704 4.54812e-05 0)
(1.0068 -0.0005465 0)
(1.00631 -0.000119371 0)
(1.00589 -0.000106299 0)
(1.00518 -0.000105754 0)
(1.00441 0.000772947 0)
(1.00346 0.000591291 0)
(1.00241 0.00409224 0)
(1.00199 0.00466653 0)
(0.99077 -0.00481703 0)
(1.00729 0.00388075 0)
(0.993161 -0.00432495 0)
(1.0066 0.00330397 0)
(0.996887 -0.00388849 0)
(1.00613 0.00277477 0)
(0.99953 -0.00338501 0)
(1.00558 0.0023117 0)
(1.00133 -0.00294031 0)
(1.00515 0.00188544 0)
(1.00253 -0.00256453 0)
(1.0048 0.00149031 0)
(1.0033 -0.00221754 0)
(1.00457 0.00112284 0)
(1.00377 -0.00187553 0)
(1.00439 0.000780645 0)
(1.00401 -0.00153434 0)
(1.00422 0.000466001 0)
(1.00403 -0.00118863 0)
(1.00396 0.000188236 0)
(1.00381 -0.000835782 0)
(1.00355 -2.69868e-05 0)
(1.00331 -0.000464826 0)
(1.00287 -0.000118245 0)
(1.00241 -8.4347e-05 0)
(1.00178 0.000140679 0)
(1.00098 0.000290466 0)
(1.00021 0.00186013 0)
(0.999239 0.0025975 0)
(0.999012 0.0102074 0)
(0.995105 -0.00475771 0)
(1.00277 0.00379499 0)
(0.995529 -0.00426762 0)
(1.00239 0.00321906 0)
(0.997715 -0.00382875 0)
(1.00232 0.00268638 0)
(0.999188 -0.0033189 0)
(1.00214 0.00222392 0)
(1.00016 -0.00286622 0)
(1.00201 0.00179574 0)
(1.0008 -0.00248169 0)
(1.00188 0.0013958 0)
(1.00121 -0.00212565 0)
(1.00179 0.00102235 0)
(1.00145 -0.00177451 0)
(1.0017 0.000675242 0)
(1.00155 -0.00142485 0)
(1.00157 0.000360944 0)
(1.00148 -0.00107453 0)
(1.00133 9.39129e-05 0)
(1.00121 -0.000716874 0)
(1.00093 -0.000103302 0)
(1.00068 -0.000362597 0)
(1.00025 -0.000143724 0)
(0.999778 1.43418e-05 0)
(0.999132 0.000197686 0)
(0.99844 0.000407089 0)
(0.997616 0.00204377 0)
(0.997207 0.00232238 0)
(0.996691 0.0100189 0)
(0.997533 -0.00468968 0)
(1.0003 0.00371786 0)
(0.996755 -0.00420176 0)
(1.0001 0.00314108 0)
(0.998036 -0.0037618 0)
(1.00021 0.00260127 0)
(0.998833 -0.00324594 0)
(1.00019 0.00213582 0)
(0.999332 -0.00278432 0)
(1.00016 0.00170185 0)
(0.999654 -0.00238919 0)
(1.0001 0.00129296 0)
(0.99985 -0.00202099 0)
(1.00003 0.000908554 0)
(0.999941 -0.0016556 0)
(0.99995 0.000549615 0)
(0.999929 -0.00128965 0)
(0.999814 0.000225919 0)
(0.999786 -0.000922214 0)
(0.999569 -4.60846e-05 0)
(0.999465 -0.000543372 0)
(0.999147 -0.000242917 0)
(0.998897 -0.000151331 0)
(0.998441 -0.000295222 0)
(0.997979 0.000326019 0)
(0.997313 -0.000106754 0)
(0.996672 0.00138704 0)
(0.995857 0.000762165 0)
(0.995632 0.00391747 0)
(0.995297 0.00263813 0)
(0.998817 -0.0046142 0)
(0.999016 0.00364165 0)
(0.997392 -0.00412698 0)
(0.998901 0.00306307 0)
(0.998195 -0.00368652 0)
(0.999098 0.00251393 0)
(0.998629 -0.00316507 0)
(0.999129 0.00204444 0)
(0.998867 -0.00269514 0)
(0.999128 0.00160518 0)
(0.999005 -0.00229169 0)
(0.999079 0.00119085 0)
(0.999065 -0.00191708 0)
(0.999015 0.000803979 0)
(0.99905 -0.00154897 0)
(0.998923 0.00044938 0)
(0.998958 -0.00118718 0)
(0.998771 0.000142747 0)
(0.998752 -0.00083393 0)
(0.998507 -9.6151e-05 0)
(0.998383 -0.00049226 0)
(0.998063 -0.000226601 0)
(0.99778 -0.000151474 0)
(0.997339 -0.000191273 0)
(0.996839 0.000297215 0)
(0.996231 0.000138581 0)
(0.995513 0.00137217 0)
(0.994849 0.00101295 0)
(0.994306 0.0040307 0)
(0.994758 0.00165505 0)
(0.999472 -0.00453175 0)
(0.998371 0.0035606 0)
(0.997725 -0.00404234 0)
(0.998298 0.00297981 0)
(0.99829 -0.00360107 0)
(0.998532 0.00241906 0)
(0.998536 -0.00307301 0)
(0.998582 0.00194327 0)
(0.998632 -0.00259226 0)
(0.99859 0.00149519 0)
(0.998667 -0.00217632 0)
(0.998543 0.00107012 0)
(0.998647 -0.00178863 0)
(0.998474 0.000672679 0)
(0.998569 -0.00140769 0)
(0.998369 0.000310572 0)
(0.998426 -0.00103507 0)
(0.9982 2.99301e-06 0)
(0.998182 -0.000671552 0)
(0.997915 -0.000229099 0)
(0.997785 -0.00033127 0)
(0.997448 -0.000331017 0)
(0.997165 3.34798e-06 0)
(0.996706 -0.000254265 0)
(0.99622 0.000438898 0)
(0.9956 0.000220871 0)
(0.994923 0.00128575 0)
(0.994302 0.00165418 0)
(0.993785 0.00395608 0)
(0.99473 0.00611588 0)
(0.999798 -0.00444261 0)
(0.998058 0.00347167 0)
(0.997897 -0.00394753 0)
(0.998006 0.00288941 0)
(0.998346 -0.00350592 0)
(0.998262 0.00231667 0)
(0.998497 -0.00297253 0)
(0.998322 0.00183614 0)
(0.998519 -0.00248327 0)
(0.998334 0.00138288 0)
(0.998499 -0.00206024 0)
(0.998288 0.000954697 0)
(0.998436 -0.00166955 0)
(0.998216 0.000560163 0)
(0.998322 -0.00129311 0)
(0.998104 0.000212297 0)
(0.99815 -0.000936363 0)
(0.997926 -6.57416e-05 0)
(0.997883 -0.000605971 0)
(0.997629 -0.000244861 0)
(0.99747 -0.000312776 0)
(0.99715 -0.000265963 0)
(0.99684 -3.0643e-05 0)
(0.9964 -5.18122e-05 0)
(0.995904 0.000273074 0)
(0.995302 0.000636021 0)
(0.994667 0.00100023 0)
(0.994123 0.00244605 0)
(0.993861 0.00365064 0)
(0.994739 0.0103033 0)
(0.999957 -0.00434663 0)
(0.997914 0.00337251 0)
(0.997988 -0.00384105 0)
(0.997874 0.00278919 0)
(0.998381 -0.0033986 0)
(0.998144 0.00220271 0)
(0.998486 -0.00285905 0)
(0.99821 0.00171603 0)
(0.998471 -0.00235936 0)
(0.998226 0.00125579 0)
(0.998423 -0.00192693 0)
(0.998182 0.000821861 0)
(0.998338 -0.00152978 0)
(0.998108 0.00042693 0)
(0.998206 -0.00115311 0)
(0.997992 8.81502e-05 0)
(0.998021 -0.000803776 0)
(0.997807 -0.000170234 0)
(0.997745 -0.000498108 0)
(0.997501 -0.000308849 0)
(0.99733 -0.000230621 0)
(0.997013 -0.000283283 0)
(0.996707 4.69315e-05 0)
(0.996251 -2.59243e-05 0)
(0.995797 0.0004722 0)
(0.995174 0.000641482 0)
(0.994632 0.00149959 0)
(0.994119 0.00237492 0)
(0.994383 0.00399171 0)
(0.995055 0.00644691 0)
(1.00004 -0.00424379 0)
(0.997847 0.00326207 0)
(0.998045 -0.00372246 0)
(0.997814 0.00267873 0)
(0.998411 -0.00327952 0)
(0.998094 0.00207798 0)
(0.998494 -0.00273509 0)
(0.998165 0.00158666 0)
(0.998461 -0.00222735 0)
(0.998184 0.00112302 0)
(0.998398 -0.0017899 0)
(0.998142 0.000689047 0)
(0.998301 -0.00139344 0)
(0.998072 0.000302864 0)
(0.998159 -0.00102652 0)
(0.997957 -1.45825e-05 0)
(0.997965 -0.000697037 0)
(0.997772 -0.000238266 0)
(0.997683 -0.000424494 0)
(0.997465 -0.000325721 0)
(0.997266 -0.000190329 0)
(0.99698 -0.000254143 0)
(0.996645 8.71863e-05 0)
(0.996239 -2.62277e-05 0)
(0.995747 0.000711952 0)
(0.995212 0.000580875 0)
(0.994651 0.00207343 0)
(0.994241 0.00227401 0)
(0.994202 0.00460851 0)
(0.995507 0.00287704 0)
(1.00009 -0.00413366 0)
(0.997814 0.0031389 0)
(0.998088 -0.00359028 0)
(0.997783 0.00255604 0)
(0.998442 -0.00314665 0)
(0.998067 0.00193958 0)
(0.998518 -0.00259765 0)
(0.998139 0.00144357 0)
(0.998478 -0.0020819 0)
(0.998157 0.000976878 0)
(0.998411 -0.00164028 0)
(0.998115 0.000544763 0)
(0.998312 -0.00124777 0)
(0.998043 0.000171976 0)
(0.998169 -0.000899318 0)
(0.997926 -0.000115812 0)
(0.997976 -0.000606168 0)
(0.997736 -0.000290109 0)
(0.997699 -0.000378167 0)
(0.997426 -0.000313235 0)
(0.997289 -0.000190178 0)
(0.996941 -0.000165822 0)
(0.996676 4.96501e-05 0)
(0.996221 0.000207823 0)
(0.995806 0.000550495 0)
(0.99525 0.00104159 0)
(0.994795 0.00181914 0)
(0.99439 0.00307594 0)
(0.994384 0.00482023 0)
(0.996167 0.00718579 0)
(1.00012 -0.00401671 0)
(0.997801 0.00300346 0)
(0.998119 -0.00344531 0)
(0.99777 0.0024233 0)
(0.998465 -0.00300299 0)
(0.998059 0.00179277 0)
(0.998538 -0.00245347 0)
(0.998133 0.00129676 0)
(0.998493 -0.00193546 0)
(0.998151 0.000834973 0)
(0.998423 -0.00149918 0)
(0.99811 0.000415897 0)
(0.998321 -0.00112372 0)
(0.99804 7.26072e-05 0)
(0.998177 -0.000813575 0)
(0.997924 -0.000166236 0)
(0.997985 -0.000580432 0)
(0.997735 -0.000269361 0)
(0.997711 -0.000414903 0)
(0.997426 -0.000215433 0)
(0.997308 -0.000280313 0)
(0.996946 1.12251e-05 0)
(0.996713 -0.000109519 0)
(0.996239 0.000572612 0)
(0.995879 0.000302475 0)
(0.995327 0.00164257 0)
(0.994971 0.0014574 0)
(0.994652 0.00392267 0)
(0.994898 0.00491108 0)
(0.996381 0.0117323 0)
(1.00013 -0.00389106 0)
(0.997807 0.00285203 0)
(0.998137 -0.00328364 0)
(0.997777 0.00227503 0)
(0.998476 -0.00284226 0)
(0.998072 0.00162918 0)
(0.998547 -0.0022925 0)
(0.998148 0.00113348 0)
(0.998499 -0.00177271 0)
(0.998167 0.000678347 0)
(0.998426 -0.0013423 0)
(0.998127 0.000273189 0)
(0.998324 -0.000984808 0)
(0.998057 -3.95341e-05 0)
(0.998182 -0.000701172 0)
(0.997939 -0.000237146 0)
(0.997995 -0.000508315 0)
(0.997748 -0.000294642 0)
(0.997729 -0.000364886 0)
(0.997438 -0.000222723 0)
(0.997337 -0.00020498 0)
(0.996959 -2.05957e-05 0)
(0.996767 8.63238e-05 0)
(0.996272 0.000421098 0)
(0.995977 0.000744839 0)
(0.995415 0.00143666 0)
(0.995174 0.00224312 0)
(0.994956 0.0035196 0)
(0.995775 0.00497479 0)
(0.996801 0.0069821 0)
(1.00014 -0.00375808 0)
(0.997824 0.00268694 0)
(0.998153 -0.00310839 0)
(0.997794 0.00211434 0)
(0.998484 -0.00266976 0)
(0.998097 0.00145333 0)
(0.998554 -0.00212306 0)
(0.998177 0.000960857 0)
(0.998502 -0.00160652 0)
(0.998198 0.000517327 0)
(0.998425 -0.0011892 0)
(0.998162 0.000135504 0)
(0.998321 -0.000882827 0)
(0.998094 -0.000134825 0)
(0.998178 -0.000645069 0)
(0.997978 -0.000276738 0)
(0.997992 -0.000490327 0)
(0.99779 -0.000288409 0)
(0.997728 -0.000356598 0)
(0.997486 -0.000203349 0)
(0.997338 -0.000161887 0)
(0.997027 -4.22086e-05 0)
(0.996775 0.000254877 0)
(0.996376 0.000286571 0)
(0.996033 0.0011397 0)
(0.995605 0.0012843 0)
(0.995317 0.00296447 0)
(0.995163 0.00331245 0)
(0.995525 0.00513849 0)
(0.997331 0.002768 0)
(1.00015 -0.00362267 0)
(0.997838 0.00251602 0)
(0.998176 -0.00292757 0)
(0.997802 0.00195783 0)
(0.998504 -0.00250067 0)
(0.998108 0.00129325 0)
(0.998579 -0.0019707 0)
(0.998187 0.000820964 0)
(0.998529 -0.00147466 0)
(0.998205 0.000410118 0)
(0.998455 -0.00108994 0)
(0.998163 8.01652e-05 0)
(0.998357 -0.000799473 0)
(0.998092 -0.000151634 0)
(0.99822 -0.000621721 0)
(0.997972 -0.000239817 0)
(0.998042 -0.000513939 0)
(0.997782 -0.000203149 0)
(0.997785 -0.00041018 0)
(0.997482 -6.69271e-05 0)
(0.997401 -0.000230119 0)
(0.997038 0.000167209 0)
(0.996854 0.000102728 0)
(0.996429 0.000654767 0)
(0.996169 0.000913432 0)
(0.995745 0.00182149 0)
(0.995557 0.00266864 0)
(0.995384 0.00426641 0)
(0.995706 0.00579567 0)
(0.998132 0.00770431 0)
(1.00015 -0.00346097 0)
(0.99787 0.00230037 0)
(0.998185 -0.00270043 0)
(0.997826 0.00174166 0)
(0.998509 -0.00226976 0)
(0.998135 0.00105312 0)
(0.998588 -0.00173897 0)
(0.998214 0.000579783 0)
(0.998539 -0.00124393 0)
(0.998229 0.000179493 0)
(0.998468 -0.000884417 0)
(0.998188 -0.000121845 0)
(0.99837 -0.000633978 0)
(0.998114 -0.000298524 0)
(0.998239 -0.000509065 0)
(0.997992 -0.000322726 0)
(0.998066 -0.000463333 0)
(0.997805 -0.000221718 0)
(0.997814 -0.000435843 0)
(0.997512 4.01035e-06 0)
(0.99744 -0.00035888 0)
(0.997076 0.000436518 0)
(0.996917 -0.000120815 0)
(0.996505 0.00122199 0)
(0.996292 0.000565873 0)
(0.995911 0.00256209 0)
(0.995827 0.00215152 0)
(0.995773 0.00531318 0)
(0.996281 0.00625607 0)
(0.998029 0.0129913 0)
(1.00012 -0.00333187 0)
(0.997932 0.00213366 0)
(0.998173 -0.0025252 0)
(0.997882 0.00160877 0)
(0.998489 -0.00212875 0)
(0.998195 0.000938872 0)
(0.998574 -0.00164735 0)
(0.998274 0.00051999 0)
(0.998527 -0.00121135 0)
(0.998286 0.000195021 0)
(0.998459 -0.000935473 0)
(0.998238 -3.02848e-05 0)
(0.998368 -0.000801059 0)
(0.99816 -0.000109364 0)
(0.998246 -0.000736869 0)
(0.998033 -8.81084e-05 0)
(0.998082 -0.000692741 0)
(0.997841 -6.65966e-06 0)
(0.997843 -0.000604408 0)
(0.997545 0.000130999 0)
(0.997493 -0.000393307 0)
(0.997122 0.000430803 0)
(0.99701 9.72693e-05 0)
(0.996585 0.00106055 0)
(0.996437 0.00104954 0)
(0.996071 0.00237728 0)
(0.996123 0.00300913 0)
(0.996248 0.00476973 0)
(0.997366 0.00578364 0)
(0.998313 0.00708152 0)
(1.00009 -0.00313323 0)
(0.998007 0.00185617 0)
(0.998161 -0.00223762 0)
(0.997949 0.00133192 0)
(0.998471 -0.00183276 0)
(0.998268 0.000636236 0)
(0.998562 -0.00134975 0)
(0.998349 0.000217758 0)
(0.998516 -0.000902636 0)
(0.998359 -9.20426e-05 0)
(0.998448 -0.000603402 0)
(0.998309 -0.000323071 0)
(0.998361 -0.000424959 0)
(0.99823 -0.000447227 0)
(0.998238 -0.000282675 0)
(0.998108 -0.000524252 0)
(0.998073 -0.000107512 0)
(0.997925 -0.00057 0)
(0.99783 0.000164885 0)
(0.997649 -0.000581865 0)
(0.997483 0.00055442 0)
(0.997256 -0.000478227 0)
(0.99702 0.00120515 0)
(0.996767 -4.79119e-05 0)
(0.996533 0.00233334 0)
(0.996378 0.00124736 0)
(0.996313 0.00447852 0)
(0.996434 0.00355244 0)
(0.996778 0.0065035 0)
(0.998816 0.00253109 0)
(1.00008 -0.00300065 0)
(0.998065 0.00167685 0)
(0.998175 -0.00205433 0)
(0.99799 0.00119723 0)
(0.998485 -0.00169524 0)
(0.998309 0.000531451 0)
(0.998588 -0.00128643 0)
(0.998388 0.000180623 0)
(0.998549 -0.000942971 0)
(0.99839 -1.57123e-05 0)
(0.998487 -0.000789572 0)
(0.998333 -9.66115e-05 0)
(0.998406 -0.000773032 0)
(0.998252 -6.98816e-05 0)
(0.998288 -0.000798932 0)
(0.998129 3.19258e-05 0)
(0.998128 -0.000830667 0)
(0.997951 0.000221424 0)
(0.997892 -0.000834059 0)
(0.997677 0.000596604 0)
(0.997558 -0.000754803 0)
(0.997304 0.0011382 0)
(0.997129 -0.000457053 0)
(0.996868 0.00206777 0)
(0.996721 0.000396303 0)
(0.996581 0.00353536 0)
(0.996639 0.00200946 0)
(0.996785 0.00622871 0)
(0.997183 0.00608727 0)
(0.999031 0.0136027 0)
(1.00005 -0.00279773 0)
(0.998146 0.00139741 0)
(0.998175 -0.00176759 0)
(0.998056 0.000943437 0)
(0.998476 -0.00142529 0)
(0.99838 0.000284319 0)
(0.998588 -0.0010577 0)
(0.998459 -3.43478e-05 0)
(0.998555 -0.000760592 0)
(0.998453 -0.000180043 0)
(0.998499 -0.000657732 0)
(0.99839 -0.000222064 0)
(0.998425 -0.000635865 0)
(0.998303 -0.000220145 0)
(0.998316 -0.000605523 0)
(0.998174 -0.000215741 0)
(0.998167 -0.000530516 0)
(0.99799 -0.000179188 0)
(0.99796 -0.000396391 0)
(0.997719 -9.38193e-06 0)
(0.997651 -5.97112e-05 0)
(0.997358 0.000424124 0)
(0.997273 0.000507944 0)
(0.996971 0.00121036 0)
(0.996915 0.00157648 0)
(0.99675 0.00266814 0)
(0.997002 0.0034505 0)
(0.99742 0.00482353 0)
(0.998665 0.00580821 0)
(0.99924 0.00720537 0)
(1.00004 -0.00264748 0)
(0.998225 0.00117932 0)
(0.998191 -0.00155265 0)
(0.99812 0.000775621 0)
(0.998481 -0.00124898 0)
(0.998452 0.000149492 0)
(0.998599 -0.000918407 0)
(0.998536 -0.000121489 0)
(0.998567 -0.000656239 0)
(0.99853 -0.000228185 0)
(0.998508 -0.000550898 0)
(0.998469 -0.000285784 0)
(0.998429 -0.000469009 0)
(0.99839 -0.000347665 0)
(0.998311 -0.000293067 0)
(0.998273 -0.000454866 0)
(0.998155 -3.0028e-05 0)
(0.998104 -0.000579034 0)
(0.99794 0.000373929 0)
(0.997862 -0.000707174 0)
(0.997654 0.000949115 0)
(0.997532 -0.000652545 0)
(0.997301 0.00179623 0)
(0.997199 -0.000202996 0)
(0.997055 0.00310499 0)
(0.997103 0.00122585 0)
(0.997171 0.00537047 0)
(0.997442 0.00335927 0)
(0.997798 0.00648655 0)
(0.999759 0.000926205 0)
(1.00008 -0.00241201 0)
(0.998245 0.000860469 0)
(0.998274 -0.00124753 0)
(0.998115 0.00049944 0)
(0.998557 -0.000986074 0)
(0.99845 -9.80713e-05 0)
(0.998687 -0.00074598 0)
(0.998532 -0.0002773 0)
(0.998661 -0.000588708 0)
(0.998519 -0.000257291 0)
(0.998604 -0.000633978 0)
(0.998458 -0.000166252 0)
(0.998526 -0.000762658 0)
(0.998387 -1.82034e-05 0)
(0.998408 -0.000925232 0)
(0.998275 0.000236465 0)
(0.998252 -0.00105474 0)
(0.99812 0.000569114 0)
(0.998037 -0.00109435 0)
(0.997892 0.000978886 0)
(0.997749 -0.000967063 0)
(0.9976 0.001502 0)
(0.997439 -0.000472248 0)
(0.997335 0.00233215 0)
(0.997291 0.000520566 0)
(0.997371 0.00374161 0)
(0.997572 0.00249821 0)
(0.997819 0.00689477 0)
(0.998101 0.00734942 0)
(0.999883 0.013543 0)
(1.00009 -0.00231386 0)
(0.998311 0.000726001 0)
(0.99832 -0.00111794 0)
(0.998151 0.000447826 0)
(0.99859 -0.000925551 0)
(0.998487 -0.000117509 0)
(0.998736 -0.000791469 0)
(0.998569 -0.000233818 0)
(0.998718 -0.000678595 0)
(0.998546 -0.000180875 0)
(0.998667 -0.000719684 0)
(0.998476 -9.67773e-05 0)
(0.998597 -0.000817891 0)
(0.998389 3.57114e-05 0)
(0.998497 -0.000949534 0)
(0.998271 0.000287852 0)
(0.99836 -0.00107055 0)
(0.99811 0.000635062 0)
(0.998168 -0.00113796 0)
(0.997893 0.00111476 0)
(0.997914 -0.0010207 0)
(0.997635 0.00179084 0)
(0.997634 -0.000575153 0)
(0.99742 0.00273123 0)
(0.997534 0.000329427 0)
(0.997589 0.00397511 0)
(0.998124 0.00192505 0)
(0.998769 0.00660624 0)
(0.999788 0.00669152 0)
(0.999309 0.0134941 0)
(1.00005 -0.0020371 0)
(0.998445 0.00034145 0)
(0.99832 -0.000720497 0)
(0.998253 0.000110144 0)
(0.998574 -0.000497184 0)
(0.99859 -0.00045097 0)
(0.998735 -0.000377494 0)
(0.998676 -0.000608656 0)
(0.998721 -0.000205452 0)
(0.998651 -0.000673937 0)
(0.998668 -8.60308e-05 0)
(0.998582 -0.000787847 0)
(0.9986 6.35467e-05 0)
(0.998501 -0.000920457 0)
(0.998504 0.000291042 0)
(0.998383 -0.00105794 0)
(0.998373 0.000558988 0)
(0.998225 -0.00111252 0)
(0.998194 0.000890667 0)
(0.998017 -0.00101294 0)
(0.997962 0.00132438 0)
(0.997781 -0.000661843 0)
(0.997733 0.00197858 0)
(0.997617 0.000111283 0)
(0.997689 0.00305042 0)
(0.997838 0.00122497 0)
(0.99838 0.00410627 0)
(0.999193 0.00167219 0)
(1.00026 0.00349324 0)
(0.999799 0.000113318 0)
(1.00002 -0.00190439 0)
(0.998571 0.000159766 0)
(0.998351 -0.000697181 0)
(0.998341 0.000101186 0)
(0.998592 -0.000664195 0)
(0.998673 -0.00030587 0)
(0.998766 -0.000659703 0)
(0.998764 -0.000360453 0)
(0.998754 -0.000548083 0)
(0.998738 -0.000364206 0)
(0.998697 -0.000462409 0)
(0.998673 -0.000435953 0)
(0.998624 -0.000345013 0)
(0.998598 -0.000542944 0)
(0.998522 -0.00017223 0)
(0.998489 -0.000673293 0)
(0.998397 9.12872e-05 0)
(0.998344 -0.000705015 0)
(0.998232 0.000445786 0)
(0.998153 -0.000564656 0)
(0.998032 0.00094113 0)
(0.997949 -0.000119114 0)
(0.997855 0.00168682 0)
(0.997845 0.000734915 0)
(0.997861 0.00273795 0)
(0.998031 0.00184361 0)
(0.99829 0.00346053 0)
(0.998734 0.00155133 0)
(0.999333 0.00188277 0)
(1.00153 0.000167132 0)
(1.00004 -0.00174837 0)
(0.998648 -5.44766e-05 0)
(0.998434 -0.000502924 0)
(0.998372 -3.03658e-05 0)
(0.998661 -0.000276509 0)
(0.998709 -0.000537501 0)
(0.99885 -0.000348602 0)
(0.998806 -0.000616809 0)
(0.99884 -0.000265683 0)
(0.998781 -0.000606591 0)
(0.998779 -0.00021607 0)
(0.998717 -0.000597194 0)
(0.998704 -0.000178566 0)
(0.998646 -0.000567111 0)
(0.998602 -0.000131757 0)
(0.998546 -0.000501671 0)
(0.998483 -6.89711e-05 0)
(0.998412 -0.000362335 0)
(0.998332 9.60637e-05 0)
(0.998242 -6.86009e-05 0)
(0.998163 0.000477226 0)
(0.998075 0.000476409 0)
(0.998035 0.00116768 0)
(0.998007 0.00130473 0)
(0.998076 0.00205383 0)
(0.998168 0.00238692 0)
(0.998393 0.00320272 0)
(0.998867 0.00385451 0)
(0.999999 0.00490408 0)
(1.00376 0.00611336 0)
(1.00004 -0.00144656 0)
(0.998768 -0.0003806 0)
(0.998502 -0.00030276 0)
(0.998465 -0.000162703 0)
(0.998694 -0.000281743 0)
(0.998774 -0.000433299 0)
(0.998905 -0.000505461 0)
(0.998882 -0.000396844 0)
(0.9989 -0.000596377 0)
(0.998855 -0.000225134 0)
(0.998841 -0.000720965 0)
(0.99879 -1.84444e-05 0)
(0.99877 -0.000880918 0)
(0.998717 0.000205873 0)
(0.998674 -0.00102916 0)
(0.998613 0.000482416 0)
(0.998562 -0.00109709 0)
(0.998488 0.000782905 0)
(0.998429 -0.000973092 0)
(0.998347 0.00118675 0)
(0.998287 -0.000557889 0)
(0.998226 0.00177629 0)
(0.998188 0.000157798 0)
(0.998193 0.00249135 0)
(0.998283 0.00100549 0)
(0.998488 0.00350611 0)
(0.998868 0.00250283 0)
(0.999412 0.00636927 0)
(1.00021 0.00742203 0)
(1.00285 0.0124457 0)
(1.00001 -0.00156833 0)
(0.998888 -0.000267537 0)
(0.998569 -0.00057339 0)
(0.998523 0.000126397 0)
(0.998754 -0.000474906 0)
(0.998837 -0.000220329 0)
(0.998974 -0.000655923 0)
(0.998944 -0.000301195 0)
(0.998982 -0.000663309 0)
(0.99891 -0.000253729 0)
(0.998932 -0.000662018 0)
(0.998836 -0.000200491 0)
(0.998869 -0.000671073 0)
(0.998759 -0.000161722 0)
(0.998785 -0.000661997 0)
(0.998664 -9.26995e-05 0)
(0.998682 -0.000551466 0)
(0.99856 9.59206e-05 0)
(0.998563 -0.00024877 0)
(0.998451 0.000478244 0)
(0.998449 0.000294823 0)
(0.998363 0.00109494 0)
(0.99837 0.00105284 0)
(0.998347 0.00193247 0)
(0.998519 0.00202964 0)
(0.998728 0.00293686 0)
(0.999468 0.00309596 0)
(1.00063 0.0038372 0)
(1.00226 0.00394927 0)
(1.00291 0.00509875 0)
(0.999982 -0.000937765 0)
(0.999054 -0.000948739 0)
(0.998627 -1.89341e-06 0)
(0.998677 -0.000471044 0)
(0.998752 0.000250057 0)
(0.998956 -0.000887514 0)
(0.99899 0.000112097 0)
(0.999078 -0.00111325 0)
(0.999002 0.000226501 0)
(0.999048 -0.00119333 0)
(0.998949 0.000397346 0)
(0.998977 -0.00127126 0)
(0.998881 0.000570846 0)
(0.998903 -0.0013447 0)
(0.998794 0.000754506 0)
(0.998812 -0.00136826 0)
(0.998711 0.000949018 0)
(0.998724 -0.00124182 0)
(0.998628 0.00120979 0)
(0.998639 -0.000896494 0)
(0.998555 0.00167956 0)
(0.998581 -0.00024104 0)
(0.998538 0.00243787 0)
(0.998627 0.000807756 0)
(0.998712 0.00351458 0)
(0.998973 0.00183998 0)
(0.999284 0.00413559 0)
(0.999808 0.0013218 0)
(1.00074 0.00211044 0)
(1.00408 -0.000455599 0)
(1.00002 -0.00147079 0)
(0.999118 -0.000250118 0)
(0.998765 -0.000848215 0)
(0.998696 0.000481937 0)
(0.998863 -0.000881222 0)
(0.998974 0.000349973 0)
(0.999097 -0.00114215 0)
(0.999111 0.000231845 0)
(0.999119 -0.00118103 0)
(0.999089 0.000246113 0)
(0.999065 -0.00112271 0)
(0.999021 0.000293733 0)
(0.998997 -0.00103446 0)
(0.998952 0.000357882 0)
(0.998917 -0.000926877 0)
(0.998868 0.000452808 0)
(0.998839 -0.000779274 0)
(0.998786 0.000615821 0)
(0.998768 -0.000489378 0)
(0.998736 0.00095328 0)
(0.998737 2.87406e-05 0)
(0.998739 0.00157054 0)
(0.998784 0.000876166 0)
(0.998842 0.00253997 0)
(0.998957 0.00202516 0)
(0.999109 0.00362575 0)
(0.999401 0.00302812 0)
(1.00011 0.00442466 0)
(1.00182 0.004472 0)
(1.00623 0.00768791 0)
(1.00002 -0.00055457 0)
(0.999222 -0.00133834 0)
(0.998888 5.69059e-06 0)
(0.998784 -0.000576593 0)
(0.99893 0.000448583 0)
(0.999037 -0.000850096 0)
(0.999169 0.000285953 0)
(0.999184 -0.0010653 0)
(0.999197 0.000233262 0)
(0.999168 -0.00111102 0)
(0.999148 0.000284355 0)
(0.999104 -0.00105202 0)
(0.999082 0.000363206 0)
(0.999036 -0.000961462 0)
(0.999002 0.000435527 0)
(0.998956 -0.000841491 0)
(0.998934 0.000537056 0)
(0.998905 -0.000626822 0)
(0.998894 0.000808567 0)
(0.998885 -0.000220847 0)
(0.998903 0.00129961 0)
(0.998934 0.000469179 0)
(0.999005 0.00205491 0)
(0.999102 0.00143245 0)
(0.999249 0.00314514 0)
(0.999442 0.00293901 0)
(0.999761 0.00504599 0)
(1.00049 0.00527532 0)
(1.00224 0.00681196 0)
(1.00672 0.00522408 0)
(1.00002 -0.00114079 0)
(0.999331 -0.00022294 0)
(0.999014 -0.00113874 0)
(0.9989 0.000576415 0)
(0.999001 -0.00101825 0)
(0.999113 0.000733775 0)
(0.999237 -0.00143781 0)
(0.999262 0.0006276 0)
(0.999278 -0.00167994 0)
(0.999255 0.000691961 0)
(0.999237 -0.00167241 0)
(0.999193 0.000810901 0)
(0.999173 -0.00155415 0)
(0.999127 0.000897959 0)
(0.999097 -0.00136094 0)
(0.999052 0.00100711 0)
(0.99904 -0.00108673 0)
(0.999013 0.00117964 0)
(0.999018 -0.000727492 0)
(0.99903 0.00146098 0)
(0.999073 -0.000190232 0)
(0.999127 0.00205759 0)
(0.999223 0.000649275 0)
(0.999367 0.00293848 0)
(0.999616 0.00173013 0)
(0.999973 0.00428492 0)
(1.00043 0.0040052 0)
(1.00098 0.0082169 0)
(1.00189 0.00962627 0)
(1.00519 0.0137433 0)
(0.99995 -0.000621026 0)
(0.999422 -0.00104334 0)
(0.999042 -0.000372288 0)
(0.998986 -0.000339767 0)
(0.999031 -4.98911e-06 0)
(0.999165 -0.000292191 0)
(0.99925 -0.000256806 0)
(0.999321 -0.000545595 0)
(0.999314 -0.000457445 0)
(0.999331 -0.000551473 0)
(0.999285 -0.000414922 0)
(0.999279 -0.000445098 0)
(0.999223 -0.000307409 0)
(0.999222 -0.000335222 0)
(0.999155 -0.000155412 0)
(0.999161 -0.000177799 0)
(0.99911 9.72668e-05 0)
(0.999133 8.59682e-05 0)
(0.999107 0.000449573 0)
(0.999168 0.000488848 0)
(0.999218 0.000946535 0)
(0.999323 0.0011175 0)
(0.999435 0.00176634 0)
(0.999598 0.00218796 0)
(0.999882 0.00297396 0)
(1.00044 0.00330309 0)
(1.0015 0.00383914 0)
(1.00299 0.00390618 0)
(1.0048 0.00422716 0)
(1.0045 0.00365303 0)
(0.999865 -0.000524506 0)
(0.999683 -0.000898896 0)
(0.999108 -0.00050789 0)
(0.999255 -0.000268532 0)
(0.999033 -0.000115353 0)
(0.999379 -0.000237321 0)
(0.999239 -0.000298532 0)
(0.999519 -0.000451736 0)
(0.999323 -0.000412804 0)
(0.999536 -0.000504051 0)
(0.999311 -0.000322935 0)
(0.999476 -0.000449254 0)
(0.999259 -0.00016466 0)
(0.999412 -0.000347525 0)
(0.999204 1.7875e-05 0)
(0.999355 -0.000185585 0)
(0.999183 0.000232451 0)
(0.999342 7.56797e-05 0)
(0.999213 0.000544699 0)
(0.999403 0.000543252 0)
(0.999354 0.00102392 0)
(0.999613 0.00109171 0)
(0.999682 0.001616 0)
(1.00001 0.0017715 0)
(1.00013 0.0023938 0)
(1.00051 0.0027548 0)
(1.00075 0.00375349 0)
(1.00125 0.00437894 0)
(1.00169 0.00545534 0)
(1.00473 0.00596183 0)
(0.999934 -0.000882014 0)
(0.999584 -0.000377269 0)
(0.999244 -0.000938299 0)
(0.999192 0.000145097 0)
(0.999167 -0.000606886 0)
(0.999296 0.000257327 0)
(0.999355 -0.00079436 0)
(0.999459 1.04225e-05 0)
(0.999443 -0.000977315 0)
(0.999501 -5.42394e-05 0)
(0.999433 -0.000914015 0)
(0.999463 3.82948e-05 0)
(0.999383 -0.000736896 0)
(0.999415 0.000193822 0)
(0.999331 -0.000513223 0)
(0.999366 0.000410864 0)